EC_EMC_1-1_149-400_52LiPF6
 7906
    1EC      C1    1   2.995   4.447   3.356 -0.1523 -0.0053  0.2122
    1EC      C2    2   2.934   4.488   3.218  0.7031 -0.1371  0.0785
    1EC      O1    3   2.886   4.468   3.459 -0.1546 -0.0614 -0.2987
    1EC      H1    4   3.074   0.018   3.392  0.7280 -0.2051 -1.2546
    1EC      H2    5   3.035   4.346   3.359  0.5987  0.2700 -0.1929
    1EC      O2    6   2.798   0.059   3.263 -0.2550 -0.0899 -0.1064
    1EC      H3    7   2.906   4.400   3.160 -0.0166  0.9154 -1.2177
    1EC      H4    8   2.997   0.059   3.160 -1.5165  1.6597 -0.3512
    1EC      C3    9   2.771   0.055   3.411 -0.4934  0.0757  0.2777
    1EC      O3   10   2.666   0.077   3.467 -0.0902 -0.3058 -0.2409
    2EC      C1   11   3.832   3.639   3.939 -0.1593  0.4003  0.3598
    2EC      C2   12   3.934   3.758   3.878  0.4165  0.1542 -0.1314
    2EC      O1   13   3.719   3.708   4.000  0.2886 -0.7809  0.1574
    2EC      H1   14   3.892   3.576   4.005  0.8564  0.5479 -0.3869
    2EC      H2   15   3.814   3.583   3.847 -1.0905  2.2794 -0.6592
    2EC      O2   16   3.869   3.876   3.941 -0.5267 -0.3916  0.1106
    2EC      H3   17   3.937   3.765   3.769  1.5007  0.3701 -0.1003
    2EC      H4   18   4.038   3.755   3.910  1.0756  2.8134 -1.6733
    2EC      C3   19   3.739   3.858   4.008 -0.0037 -0.0206  0.0936
    2EC      O3   20   3.651   3.941   4.035  0.7958 -0.2210 -0.7251
    3EC      C1   21   1.891   0.164   3.475 -0.5592 -0.1495 -0.1180
    3EC      C2   22   2.000   0.273   3.510  1.1385 -0.5059 -0.1509
    3EC      O1   23   1.899   0.155   3.322 -1.1238  0.1839  0.6526
    3EC      H1   24   1.787   0.189   3.497 -1.2601 -2.2147 -0.8780
    3EC      H2   25   1.933   0.083   3.534 -0.6351  1.2361  1.9655
    3EC      O2   26   2.074   0.296   3.377  0.3033  0.4809 -0.4300
    3EC      H3   27   2.060   0.237   3.594 -1.1912 -2.1462  0.9006
    3EC      H4   28   1.935   0.356   3.536 -0.2591 -1.3653 -0.7903
    3EC      C3   29   2.012   0.236   3.257  0.4140 -0.1365 -0.3042
    3EC      O3   30   2.061   0.224   3.146  0.2658  0.0265  0.2194
    4EC      C1   31   1.464   2.696   0.408  0.4012  0.3267 -0.0279
    4EC      C2   32   1.593   2.709   0.504  0.3028  0.2738  0.5842
    4EC      O1   33   1.526   2.639   0.281 -0.6129  0.2569 -0.2803
    4EC      H1   34   1.420   2.796   0.403 -0.2578  0.0857  0.7314
    4EC      H2   35   1.405   2.621   0.460  2.0243 -0.3081  0.9451
    4EC      O2   36   1.705   2.644   0.431 -0.1515 -0.4060  0.0248
    4EC      H3   37   1.573   2.660   0.599  1.9542 -0.6078  0.5243
    4EC      H4   38   1.623   2.814   0.509 -1.2992  0.7353  0.9390
    4EC      C3   39   1.667   2.602   0.286  0.3618 -0.1061  0.0470
    4EC      O3   40   1.717   2.515   0.215 -0.2387  0.0733 -0.2065
    5EC      C1   41   0.121   0.135   1.692 -0.2582  0.0838  0.4501
    5EC      C2   42   0.027   0.114   1.563 -0.6209  0.1521  0.6828
    5EC      O1   43   0.034   0.224   1.784  0.3785  0.5648  0.0199
    5EC      H1   44   0.219   0.169   1.658 -0.5901  1.2471  0.6052
    5EC      H2   45   0.136   0.035   1.732  1.9042 -0.5580 -1.7180
    5EC      O2   46   4.387   0.165   1.610 -0.7514  0.4151  0.1259
    5EC      H3   47   0.006   0.010   1.539  3.6615 -0.3853 -1.8870
    5EC      H4   48   0.051   0.171   1.473 -3.0506 -0.1303 -0.2106
    5EC      C3   49   4.384   0.234   1.740  0.3756  0.6086 -0.4729
    5EC      O3   50   4.297   0.312   1.778 -0.8090 -0.6060 -0.1496
    6EC      C1   51   3.980   2.833   0.686 -0.1971  0.1920  0.8246
    6EC      C2   52   3.903   2.739   0.579  0.3605  0.5735  0.6168
    6EC      O1   53   4.081   2.901   0.593  0.6203  0.1179 -0.4477
    6EC      H1   54   4.032   2.772   0.759  1.9836 -0.3786 -1.0985
    6EC      H2   55   3.914   2.903   0.737 -4.8412 -2.3375 -1.1494
    6EC      O2   56   3.970   2.770   0.442 -0.1756  0.2219  0.2760
    6EC      H3   57   3.795   2.756   0.582 -0.5766 -3.9260 -0.1273
    6EC      H4   58   3.928   2.635   0.601 -0.4119  0.5715  1.5818
    6EC      C3   59   4.080   2.871   0.455  0.2982 -0.8745  0.6108
    6EC      O3   60   4.159   2.898   0.367  0.1322  0.5825  0.1968
    7EC      C1   61   1.918   3.237   2.937  0.8720 -0.6493  0.2667
    7EC      C2   62   1.964   3.371   2.859 -0.5725  0.1037  0.2999
    7EC      O1   63   1.768   3.235   2.921  0.4091 -0.2918 -0.6396
    7EC      H1   64   1.950   3.266   3.037 -0.0697  0.4491  0.2715
    7EC      H2   65   1.973   3.144   2.921  0.3710 -1.1206  1.2128
    7EC      O2   66   1.838   3.420   2.802  0.5989 -0.1476  0.3419
    7EC      H3   67   2.039   3.359   2.781  1.2494  1.2554  1.7960
    7EC      H4   68   2.012   3.439   2.929 -1.1024  1.3860 -0.5484
    7EC      C3   69   1.712   3.340   2.830 -0.6813  0.0633  0.1344
    7EC      O3   70   1.595   3.359   2.800  0.2395 -0.0214  0.4695
    8EC      C1   71   4.361   3.497   4.198  0.2010 -0.0774 -0.4440
    8EC      C2   72   4.478   3.389   4.188  0.2925  0.0563  0.3843
    8EC      O1   73   4.391   3.565   4.332 -0.3756 -0.4168  0.6125
    8EC      H1   74   4.259   3.463   4.215  0.3366  0.1353  0.9598
    8EC      H2   75   4.352   3.571   4.118 -2.0760 -0.2785 -0.4543
    8EC      O2   76   0.050   3.396   4.325 -0.1070  0.2884 -0.2925
    8EC      H3   77   0.067   3.422   4.128 -0.3445 -0.2776 -0.7427
    8EC      H4   78   4.439   3.292   4.155 -1.8923  1.6654 -2.1976
    8EC      C3   79   4.488   3.497   4.419 -0.1932  0.2953  0.0635
    8EC      O3   80   0.043   3.534   0.030  0.3171 -0.1044  0.0836
    9EC      C1   81   3.925   2.353   2.848 -0.0507  0.2367 -0.0296
    9EC      C2   82   3.796   2.438   2.781  0.2308 -0.6374 -0.7211
    9EC      O1   83   3.857   2.240   2.926 -0.5747 -0.2050 -0.3928
    9EC      H1   84   3.990   2.411   2.913  1.0690  0.6948 -1.4991
    9EC      H2   85   3.986   2.310   2.769  0.3655  0.8948 -0.0715
    9EC      O2   86   3.682   2.368   2.841  0.4917 -0.6411 -0.0287
    9EC      H3   87   3.791   2.426   2.673  1.4246  0.5647 -0.9326
    9EC      H4   88   3.784   2.542   2.812 -0.0926 -0.1533 -2.3862
    9EC      C3   89   3.709   2.250   2.935  0.2240 -1.4051 -0.1931
    9EC      O3   90   3.625   2.178   2.978  0.1629  0.2136 -0.2761
   10EC      C1   91   1.410   1.088   0.939  0.4449  0.8864 -0.3235
   10EC      C2   92   1.291   1.133   1.031  0.1298 -0.5889 -0.5497
   10EC      O1   93   1.440   1.200   0.847  0.5427 -0.0546  0.1474
   10EC      H1   94   1.385   0.989   0.900  1.5987  0.3558  0.2387
   10EC      H2   95   1.500   1.072   0.998  0.0409 -0.9100 -0.1195
   10EC      O2   96   1.268   1.276   0.983  0.1942 -0.6302 -0.6632
   10EC      H3   97   1.324   1.135   1.135 -0.8592  0.2236 -0.2330
   10EC      H4   98   1.197   1.081   1.009  0.7626 -1.6618 -0.8119
   10EC      C3   99   1.348   1.322   0.870 -0.1390  0.0314  0.2824
   10EC      O3  100   1.358   1.434   0.830 -0.3938  0.6206 -0.3224
   11EC      C1  101   4.181   1.439   4.180  0.4642 -0.2682  0.6277
   11EC      C2  102   4.282   1.508   4.277 -0.2764 -0.0965 -0.4743
   11EC      O1  103   4.093   1.557   4.136 -0.1835  0.0453 -0.4420
   11EC      H1  104   4.119   1.353   4.208 -1.3499  0.5659 -0.7105
   11EC      H2  105   4.219   1.401   4.086  0.3243  1.4694 -0.1603
   11EC      O2  106   4.256   1.658   4.271 -0.2653  0.2622  1.0467
   11EC      H3  107   4.385   1.476   4.260 -0.3755  0.0171 -1.3317
   11EC      H4  108   4.261   1.479   4.380  1.3992  0.2501 -0.0085
   11EC      C3  109   4.148   1.694   4.168 -0.8235  0.0523 -0.4342
   11EC      O3  110   4.088   1.803   4.170  0.4876 -0.1645  0.2418
   12EC      C1  111   3.818   1.599   4.017 -0.1604 -0.1944  0.5184
   12EC      C2  112   3.703   1.700   3.964  0.3307  0.2510  0.5293
   12EC      O1  113   3.929   1.615   3.909 -0.1271 -0.6031  0.2805
   12EC      H1  114   3.778   1.498   4.024  0.2412 -0.2841  1.9589
   12EC      H2  115   3.869   1.625   4.110  2.3867  2.4568 -1.4412
   12EC      O2  116   3.785   1.788   3.875 -0.2825 -0.0433  0.9054
   12EC      H3  117   3.641   1.756   4.034 -1.0838 -0.9292  0.2731
   12EC      H4  118   3.645   1.633   3.900  0.6742  0.4999 -0.0492
   12EC      C3  119   3.908   1.734   3.819 -0.2613  0.4727 -0.1666
   12EC      O3  120   3.995   1.801   3.767  0.1165  0.6808 -0.2546
   13EC      C1  121   3.393   3.681   0.118  0.7085 -0.1310 -0.1023
   13EC      C2  122   3.320   3.820   0.139  0.0540  0.1022  0.0440
   13EC      O1  123   3.435   3.692   4.473 -0.5039 -0.3248  0.1018
   13EC      H1  124   3.324   3.600   0.143 -1.3884  2.3709  3.0593
   13EC      H2  125   3.489   3.679   0.169 -0.8269  0.1356  3.0451
   13EC      O2  126   3.362   3.905   0.025 -0.5485 -0.0755  0.0689
   13EC      H3  127   3.339   3.863   0.238 -0.2707  0.6195 -0.1123
   13EC      H4  128   3.211   3.807   0.137 -0.0231  0.6995  0.0229
   13EC      C3  129   3.438   3.833   4.414 -0.4624  0.2385  0.4193
   13EC      O3  130   3.428   3.859   4.291  0.7012 -0.1798  0.1647
   14EC      C1  131   1.943   1.111   4.422 -0.0116 -0.5532  0.1457
   14EC      C2  132   1.871   1.244   4.352  0.7197  0.4235 -0.6353
   14EC      O1  133   1.840   1.063   0.025 -0.4056 -0.2203  0.7706
   14EC      H1  134   2.045   1.132   4.454 -0.0201 -1.8467  1.0758
   14EC      H2  135   1.940   1.036   4.342 -0.1686 -1.3325  0.8727
   14EC      O2  136   1.731   1.228   4.401  0.4486  0.1315  0.7024
   14EC      H3  137   1.894   1.243   4.245 -1.7985  1.0579 -1.2396
   14EC      H4  138   1.898   1.343   4.389 -2.1545  3.0005 -4.6038
   14EC      C3  139   1.701   1.119   0.009 -0.0509 -0.2544 -0.5915
   14EC      O3  140   1.622   1.134   0.102 -0.4359  0.2465 -0.3723
   15EC      C1  141   3.592   4.281   3.017 -0.5022  0.1545 -0.3905
   15EC      C2  142   3.578   4.125   2.994 -0.1808 -0.2215  0.1465
   15EC      O1  143   3.702   4.297   3.128 -0.0129  0.1818 -0.1774
   15EC      H1  144   3.505   4.326   3.065 -1.0516 -0.7357 -0.5285
   15EC      H2  145   3.621   4.333   2.926 -1.7023 -0.5523 -1.1968
   15EC      O2  146   3.697   4.070   3.080  0.7028 -0.4221  0.7939
   15EC      H3  147   3.575   4.106   2.887 -2.2122 -1.8566  0.4543
   15EC      H4  148   3.490   4.085   3.043 -0.0607  0.5530  1.0389
   15EC      C3  149   3.762   4.173   3.161 -0.1423 -0.2612  0.3087
   15EC      O3  150   3.852   4.153   3.239 -0.4636  0.3067 -0.3274
   16EC      C1  151   2.901   2.323   1.672  0.1567 -0.0863  0.0070
   16EC      C2  152   2.986   2.210   1.602 -0.6710 -0.3403 -0.3922
   16EC      O1  153   2.761   2.266   1.667 -0.2121  0.8975  0.3941
   16EC      H1  154   2.900   2.414   1.611  0.6624 -1.6132 -2.3993
   16EC      H2  155   2.943   2.353   1.768  0.9205 -0.2010 -0.2789
   16EC      O2  156   2.891   2.100   1.571 -0.2454  0.2215 -0.6792
   16EC      H3  157   3.053   2.185   1.684  0.5751  0.3284 -1.1591
   16EC      H4  158   3.033   2.261   1.517 -0.4960 -0.5431 -0.4182
   16EC      C3  159   2.749   2.138   1.590 -0.2482 -0.4571 -1.1398
   16EC      O3  160   2.665   2.045   1.610 -0.5362 -0.0057  0.3564
   17EC      C1  161   3.430   3.514   4.093  0.4751  0.0381 -0.1644
   17EC      C2  162   3.326   3.524   4.207 -0.5471  0.0408 -0.0199
   17EC      O1  163   3.345   3.503   3.967  0.4842 -0.1235 -0.2763
   17EC      H1  164   3.503   3.433   4.097  0.5534  0.1364  0.4506
   17EC      H2  165   3.489   3.605   4.100  0.3085  0.0232  1.8495
   17EC      O2  166   3.192   3.516   4.137  0.0400 -0.2527  0.3281
   17EC      H3  167   3.339   3.622   4.253  0.4159  1.5066 -3.1215
   17EC      H4  168   3.335   3.450   4.286  1.9319  0.3984  0.1013
   17EC      C3  169   3.201   3.518   3.985 -0.4300  0.3404  0.1936
   17EC      O3  170   3.111   3.497   3.902 -0.0887  0.1616 -0.2205
   18EC      C1  171   0.079   0.731   0.747 -0.7066 -0.1432  0.2776
   18EC      C2  172   4.428   0.752   0.807  0.1285 -0.2308 -0.0438
   18EC      O1  173   0.054   0.701   0.600 -0.5703  0.1008  0.0790
   18EC      H1  174   0.139   0.662   0.806 -0.6645 -0.8263 -0.5357
   18EC      H2  175   0.131   0.826   0.750 -0.4869 -0.2786  0.7708
   18EC      O2  176   4.340   0.742   0.688  0.8163 -0.3963 -0.0106
   18EC      H3  177   4.432   0.850   0.854  3.3671 -0.2354 -0.0873
   18EC      H4  178   4.420   0.672   0.881 -0.1436 -0.2660 -0.1116
   18EC      C3  179   4.409   0.706   0.556  0.0927  0.9275  0.8839
   18EC      O3  180   4.368   0.626   0.479  0.2047 -0.1706  0.2198
   19EC      C1  181   2.923   2.585   2.396  0.7800 -0.3775  0.2349
   19EC      C2  182   2.864   2.523   2.257 -0.3271  0.4616 -0.2207
   19EC      O1  183   2.814   2.549   2.498 -0.2169 -0.2559  0.5396
   19EC      H1  184   2.921   2.694   2.396 -2.0754 -0.2436 -3.1415
   19EC      H2  185   3.022   2.555   2.430  1.5442  3.3160  1.7996
   19EC      O2  186   2.724   2.482   2.293 -0.6748  0.1809 -0.6039
   19EC      H3  187   2.932   2.441   2.235 -1.1586 -1.0535  2.3726
   19EC      H4  188   2.874   2.606   2.187 -1.2354  2.2631  1.6358
   19EC      C3  189   2.688   2.489   2.444  0.0310 -0.3784  0.2431
   19EC      O3  190   2.577   2.488   2.497  0.1843  0.2606 -0.2725
   20EC      C1  191   3.880   0.457   3.724  0.4759 -0.1425 -0.1142
   20EC      C2  192   3.961   0.595   3.710 -0.8006 -0.0739 -0.0526
   20EC      O1  193   3.875   0.412   3.581 -0.2102 -0.0915  0.1608
   20EC      H1  194   3.784   0.479   3.768  2.2282  1.5829  3.1897
   20EC      H2  195   3.933   0.386   3.788  1.4016  2.8218  2.6783
   20EC      O2  196   3.998   0.612   3.565 -0.5907 -0.8085 -0.3886
   20EC      H3  197   4.057   0.582   3.760  0.4759  1.3180 -1.9937
   20EC      H4  198   3.916   0.687   3.746  0.4847  0.9615 -0.9829
   20EC      C3  199   3.958   0.493   3.484 -0.5326  0.1945  0.5766
   20EC      O3  200   3.950   0.490   3.360  0.4679  0.2803  0.1626
   21EC      C1  201   1.740   2.335   3.081  0.6142  0.3665 -0.6352
   21EC      C2  202   1.839   2.205   3.069  0.8026 -0.6433  0.0030
   21EC      O1  203   1.816   2.416   3.191 -0.7000  0.1471 -0.4494
   21EC      H1  204   1.644   2.310   3.126  0.1129  1.0066 -1.3166
   21EC      H2  205   1.731   2.384   2.984  1.5717 -2.0043 -1.9843
   21EC      O2  206   1.958   2.238   3.157 -0.1230 -0.3405 -0.3347
   21EC      H3  207   1.885   2.191   2.971 -3.2053 -0.1248 -2.1529
   21EC      H4  208   1.790   2.120   3.117 -1.5436  1.1149  0.8778
   21EC      C3  209   1.942   2.356   3.241  0.5201  0.2956  0.1582
   21EC      O3  210   2.026   2.401   3.326  0.2016  0.6418  0.0720
   22EC      C1  211   0.474   0.220   1.891  0.1236  0.5441 -0.5785
   22EC      C2  212   0.361   0.335   1.903  0.3238  0.1811  0.1055
   22EC      O1  213   0.557   0.260   1.772  0.1210  0.0227  0.1780
   22EC      H1  214   0.445   0.115   1.897 -0.9069  0.8936  1.0573
   22EC      H2  215   0.541   0.234   1.975  1.4967  1.0031 -1.7193
   22EC      O2  216   0.399   0.434   1.795 -0.2805  0.5864  0.2035
   22EC      H3  217   0.360   0.382   2.001  0.6359 -0.0915  0.2438
   22EC      H4  218   0.263   0.297   1.872  1.2390 -3.2273  0.8771
   22EC      C3  219   0.526   0.398   1.723 -0.8009 -0.1291 -0.2594
   22EC      O3  220   0.549   0.438   1.611  0.7060  0.6455 -0.4000
   23EC      C1  221   0.785   2.511   0.752 -0.3045 -0.6044  0.9110
   23EC      C2  222   0.847   2.634   0.664  0.0167  0.1375  0.4489
   23EC      O1  223   0.732   2.572   0.881  0.1949 -0.0760 -0.0518
   23EC      H1  224   0.871   2.452   0.782  0.9708  0.5707 -0.2482
   23EC      H2  225   0.719   2.444   0.697  1.1130 -1.3214  0.0334
   23EC      O2  226   0.793   2.751   0.740 -0.9288 -0.2618  0.1885
   23EC      H3  227   0.809   2.640   0.562 -1.6170  0.7090  1.0531
   23EC      H4  228   0.955   2.633   0.657 -0.0783 -0.9052 -1.5506
   23EC      C3  229   0.739   2.726   0.879  0.1957  1.0501 -0.4447
   23EC      O3  230   0.682   2.800   0.960  0.7109 -0.2591  0.4167
   24EC      C1  231   3.394   2.720   3.649 -0.4636 -0.3731 -0.3255
   24EC      C2  232   3.489   2.737   3.780  1.2096 -0.1786 -0.7556
   24EC      O1  233   3.482   2.792   3.542  0.5291 -0.3046  0.8833
   24EC      H1  234   3.297   2.769   3.657 -0.5010 -0.7023  1.7772
   24EC      H2  235   3.377   2.616   3.619 -1.1535 -0.5098  0.5068
   24EC      O2  236   3.586   2.848   3.736  0.2006  0.0743 -0.0480
   24EC      H3  237   3.542   2.645   3.800  1.2761  0.2306  1.2049
   24EC      H4  238   3.438   2.763   3.873  1.6710 -0.1941 -0.4970
   24EC      C3  239   3.598   2.870   3.592  0.2859 -0.6513  0.0593
   24EC      O3  240   3.678   2.935   3.525  0.2294  0.0742 -0.3152
   25EC      C1  241   2.750   1.635   3.021 -0.0362  0.2997  0.0129
   25EC      C2  242   2.894   1.579   2.960  0.0587  0.3637  0.6139
   25EC      O1  243   2.721   1.752   2.932 -0.4811  0.2972  0.1996
   25EC      H1  244   2.761   1.665   3.125 -1.3886 -2.2813  0.9972
   25EC      H2  245   2.676   1.555   3.017  1.0253 -0.6965 -0.0925
   25EC      O2  246   2.912   1.654   2.830  0.3448 -0.0104  0.3559
   25EC      H3  247   2.887   1.470   2.955  0.8650  0.3612 -0.8549
   25EC      H4  248   2.975   1.597   3.030 -0.1457 -3.1098  1.9244
   25EC      C3  249   2.810   1.768   2.816 -0.0407 -0.3519  0.1882
   25EC      O3  250   2.775   1.812   2.710 -0.3753 -0.0051  0.3257
   26EC      C1  251   3.067   2.216   0.625  0.3369  0.3384  0.1433
   26EC      C2  252   3.218   2.260   0.587  0.4253 -0.1153  0.0997
   26EC      O1  253   3.031   2.303   0.737 -0.0336  0.0223 -0.1086
   26EC      H1  254   3.061   2.109   0.647  4.1604 -0.3567 -1.3433
   26EC      H2  255   3.003   2.238   0.540  1.3967 -0.5862 -0.9444
   26EC      O2  256   3.248   2.372   0.688 -0.3306 -0.1707  0.5507
   26EC      H3  257   3.234   2.296   0.486  2.2267  0.7824  0.6694
   26EC      H4  258   3.276   2.169   0.580 -0.6295 -0.7100 -5.1650
   26EC      C3  259   3.139   2.388   0.793  0.4823  0.1865  0.3948
   26EC      O3  260   3.125   2.494   0.847  0.1519 -0.5449 -0.0336
   27EC      C1  261   2.424   2.371   1.857 -0.1417  0.0325 -0.7202
   27EC      C2  262   2.493   2.445   1.729 -0.2201  0.2944 -0.5437
   27EC      O1  263   2.374   2.239   1.807  0.0754  0.3257 -0.3120
   27EC      H1  264   2.334   2.424   1.888 -0.1646  0.7457 -1.9368
   27EC      H2  265   2.503   2.362   1.931  0.6175  2.4970 -1.1084
   27EC      O2  266   2.485   2.328   1.628  0.2590 -0.0514  0.2643
   27EC      H3  267   2.599   2.468   1.742 -0.5739  0.3699  3.5345
   27EC      H4  268   2.427   2.529   1.712  0.2020  0.5345 -1.0328
   27EC      C3  269   2.405   2.210   1.666 -0.0638 -1.0146  0.4161
   27EC      O3  270   2.398   2.103   1.608 -0.0771 -0.2723 -0.0885
   28EC      C1  271   2.213   1.224   2.449  0.2005  0.1396  0.2538
   28EC      C2  272   2.274   1.138   2.325  0.2342 -0.5170 -0.3828
   28EC      O1  273   2.282   1.358   2.446 -0.0192  1.1980 -0.1097
   28EC      H1  274   2.245   1.178   2.543  0.9859  0.1793  0.0052
   28EC      H2  275   2.104   1.225   2.436 -0.0704 -2.9606  1.3395
   28EC      O2  276   2.355   1.244   2.260 -0.3254  0.3038 -0.2762
   28EC      H3  277   2.191   1.097   2.267 -0.3068 -3.3668  2.1997
   28EC      H4  278   2.330   1.054   2.365  1.1338  1.0394  1.8383
   28EC      C3  279   2.379   1.375   2.334  0.7919 -0.9361  0.0397
   28EC      O3  280   2.399   1.485   2.283 -0.1942 -0.8427 -0.0184
   29EC      C1  281   3.972   4.062   0.056 -0.1893 -0.7107  0.1344
   29EC      C2  282   3.881   4.191   0.064  0.4936 -0.9211 -0.5812
   29EC      O1  283   3.898   3.987   4.445 -0.4330  0.3816 -0.1050
   29EC      H1  284   3.966   3.994   0.141 -0.3572 -0.0278  0.6756
   29EC      H2  285   4.075   4.083   0.025 -0.5397  1.7496  0.4487
   29EC      O2  286   3.755   4.163   4.479 -0.0967  0.4013  0.4102
   29EC      H3  287   3.932   4.273   0.014 -0.9965  1.5011  1.6263
   29EC      H4  288   3.866   4.216   0.169 -1.6135  0.4570 -1.1361
   29EC      C3  289   3.759   4.026   4.418 -0.6734 -0.1073  0.9487
   29EC      O3  290   3.696   3.990   4.319  0.8466 -0.1219 -0.5370
   30EC      C1  291   1.459   3.056   0.297  0.3593  0.5188 -0.3927
   30EC      C2  292   1.414   3.209   0.315 -0.3875 -0.1364 -0.1054
   30EC      O1  293   1.328   2.985   0.277  0.0126  1.0770  0.0555
   30EC      H1  294   1.499   3.023   0.393 -1.1380 -3.7155 -0.9923
   30EC      H2  295   1.526   3.034   0.215 -0.2837 -1.1235 -0.5129
   30EC      O2  296   1.264   3.200   0.309  0.0099 -0.7530  0.5733
   30EC      H3  297   1.457   3.275   0.241  2.1472 -1.2481  0.2738
   30EC      H4  298   1.455   3.241   0.411 -0.3375 -1.0610  0.1996
   30EC      C3  299   1.205   3.061   0.310  0.2247  0.3779 -0.2992
   30EC      O3  300   1.093   3.037   0.272  0.6038  0.3213  0.4644
   31EC      C1  301   1.456   0.955   2.950  0.1673  0.3958  0.5014
   31EC      C2  302   1.326   1.051   2.918  0.7053  0.1373 -0.7789
   31EC      O1  303   1.409   0.827   2.894 -0.1904  0.4999  0.0485
   31EC      H1  304   1.478   0.952   3.056  1.3145  0.7214  0.2957
   31EC      H2  305   1.555   0.980   2.910  0.4466 -0.0211  0.9212
   31EC      O2  306   1.226   0.956   2.859  0.1921 -0.4468 -0.1504
   31EC      H3  307   1.367   1.128   2.852  1.0442  1.1742  0.5920
   31EC      H4  308   1.287   1.105   3.005 -1.9888 -1.6131 -0.8007
   31EC      C3  309   1.267   0.818   2.852 -0.5451  0.1796  0.2093
   31EC      O3  310   1.212   0.723   2.794 -0.4105 -0.5594  0.2128
   32EC      C1  311   0.267   2.516   0.834 -1.3139 -0.1342 -0.1248
   32EC      C2  312   0.413   2.580   0.843 -0.0957  0.0758 -0.4175
   32EC      O1  313   0.244   2.511   0.684 -0.2069  0.1000 -0.2747
   32EC      H1  314   0.194   2.580   0.883 -1.1225 -0.4875  0.6462
   32EC      H2  315   0.267   2.413   0.870 -0.3279 -0.0875  0.0353
   32EC      O2  316   0.456   2.605   0.697  0.3462  0.0805 -0.2587
   32EC      H3  317   0.471   2.511   0.906 -3.0586  0.4228  3.0329
   32EC      H4  318   0.403   2.677   0.892 -2.5087  0.1429 -0.9502
   32EC      C3  319   0.347   2.575   0.601  0.5853  0.2999 -0.4919
   32EC      O3  320   0.378   2.541   0.485 -0.0376  0.1264 -0.1424
   33EC      C1  321   2.359   0.817   2.125 -0.3425  0.7405 -0.1639
   33EC      C2  322   2.383   0.661   2.178  0.2349 -0.2057 -0.5718
   33EC      O1  323   2.451   0.895   2.211  0.2995  0.2700 -0.5505
   33EC      H1  324   2.257   0.847   2.146 -0.8134 -1.7137  1.4205
   33EC      H2  325   2.379   0.843   2.021  0.7562  0.1783 -0.1137
   33EC      O2  326   2.502   0.673   2.277 -0.2635  0.1344 -0.0873
   33EC      H3  327   2.402   0.591   2.096 -0.5284 -1.7700  0.5414
   33EC      H4  328   2.289   0.642   2.230 -1.4556  0.3435 -3.2309
   33EC      C3  329   2.540   0.814   2.311 -0.1252 -0.5655  0.3308
   33EC      O3  330   2.627   0.852   2.390 -0.0814  0.5400  0.3088
   34EC      C1  331   3.304   2.185   2.852 -0.1499 -0.2171  0.2008
   34EC      C2  332   3.318   2.336   2.926 -0.0039  0.7701 -0.3456
   34EC      O1  333   3.253   2.226   2.718  0.3568  0.0127  0.1847
   34EC      H1  334   3.232   2.119   2.902  1.5009 -2.0992  0.2360
   34EC      H2  335   3.398   2.132   2.835  0.0123  0.2755 -0.4793
   34EC      O2  336   3.276   2.430   2.819  0.3186 -0.2086 -0.3572
   34EC      H3  337   3.416   2.373   2.955  0.2088 -0.1394  0.1249
   34EC      H4  338   3.242   2.349   3.004  0.3985  0.7506  0.0530
   34EC      C3  339   3.230   2.367   2.687 -0.2667 -0.2833 -0.7690
   34EC      O3  340   3.219   2.429   2.585 -0.6046  0.2790  0.4853
   35EC      C1  341   3.432   1.322   0.661 -0.2263  0.2573  0.1518
   35EC      C2  342   3.488   1.329   0.509  0.3693  0.1688  0.3704
   35EC      O1  343   3.534   1.402   0.738 -0.0470  0.4336  0.1535
   35EC      H1  344   3.440   1.218   0.692 -1.0323 -0.8285 -2.9216
   35EC      H2  345   3.330   1.355   0.682  0.9751  2.2841  3.7796
   35EC      O2  346   3.623   1.397   0.529  0.0555  0.4483 -0.4648
   35EC      H3  347   3.430   1.401   0.452  0.7411 -0.4674 -0.8494
   35EC      H4  348   3.502   1.236   0.454  1.4707  0.9378 -0.7198
   35EC      C3  349   3.657   1.441   0.669  0.4688  0.1505  0.1498
   35EC      O3  350   3.741   1.519   0.707  0.5744  0.5825 -0.4607
   36EC      C1  351   4.155   2.028   0.807 -0.1724 -0.3736  0.6137
   36EC      C2  352   4.166   2.018   0.646 -0.3676 -0.6249 -0.4088
   36EC      O1  353   4.093   1.897   0.844 -0.3315 -0.2693  0.0257
   36EC      H1  354   4.089   2.108   0.839 -0.4943  0.2960 -1.5271
   36EC      H2  355   4.256   2.042   0.846  1.4207  0.4345 -3.2441
   36EC      O2  356   4.123   1.875   0.620  0.5916 -0.4212 -0.9016
   36EC      H3  357   4.271   2.028   0.619  0.2651 -1.9673  1.3205
   36EC      H4  358   4.102   2.101   0.616 -1.4942 -1.9662 -1.9146
   36EC      C3  359   4.094   1.789   0.739  0.6302 -0.2840  0.5249
   36EC      O3  360   4.009   1.697   0.729 -0.6479  0.5368 -0.4673
   37EC      C1  361   2.492   4.256   2.974 -0.1913  0.2119 -0.4234
   37EC      C2  362   2.342   4.268   2.899  0.0503  0.0133  0.1292
   37EC      O1  363   2.534   4.116   2.948  0.0264  0.5982 -0.5554
   37EC      H1  364   2.482   4.277   3.080 -0.0610  1.0386 -0.5721
   37EC      H2  365   2.558   4.330   2.929 -0.8371  0.8953 -0.2670
   37EC      O2  366   2.324   4.132   2.848 -0.0882  0.5492 -0.3963
   37EC      H3  367   2.341   4.346   2.823 -1.1730  0.8046  0.9266
   37EC      H4  368   2.262   4.280   2.972  2.7008  1.9376  3.0051
   37EC      C3  369   2.426   4.028   2.890  0.5118  0.3894  0.6233
   37EC      O3  370   2.445   3.913   2.844  0.4014 -0.5466  0.0825
   38EC      C1  371   0.352   1.800   3.233  0.0526 -0.1971  0.2802
   38EC      C2  372   0.503   1.847   3.240  0.2115 -0.0560  0.2984
   38EC      O1  373   0.273   1.927   3.283 -1.0306  0.0364  0.5029
   38EC      H1  374   0.329   1.727   3.310 -0.5532 -1.2565 -0.8714
   38EC      H2  375   0.322   1.753   3.140  1.1799 -1.7541  0.6802
   38EC      O2  376   0.500   1.989   3.296 -0.3315 -0.3697 -0.2808
   38EC      H3  377   0.543   1.841   3.139 -0.8061  0.4917 -0.1533
   38EC      H4  378   0.561   1.780   3.304 -0.6422 -1.1172 -0.0110
   38EC      C3  379   0.362   2.032   3.343 -0.6687 -0.1348 -0.2373
   38EC      O3  380   0.338   2.145   3.394 -0.1825  0.3249 -0.1203
   39EC      C1  381   1.577   2.746   2.168 -0.4499  0.5261 -0.2895
   39EC      C2  382   1.694   2.853   2.210  0.0407 -0.6598  0.1861
   39EC      O1  383   1.612   2.627   2.258 -0.8359  0.4057  0.2359
   39EC      H1  384   1.600   2.733   2.062  0.2331 -0.0484 -0.0803
   39EC      H2  385   1.483   2.797   2.186 -1.0628  0.0163 -1.8463
   39EC      O2  386   1.785   2.770   2.302  0.2823  0.2391 -0.3880
   39EC      H3  387   1.665   2.945   2.260  2.4696 -0.0370  0.5791
   39EC      H4  388   1.764   2.879   2.131  1.8717 -0.3807  1.8376
   39EC      C3  389   1.725   2.646   2.355 -0.0076 -0.4378  0.6243
   39EC      O3  390   1.786   2.555   2.410 -0.0470 -0.5778  0.4173
   40EC      C1  391   1.674   3.701   1.598  0.4825 -0.0626  0.6695
   40EC      C2  392   1.617   3.827   1.688  0.2308 -0.6482  1.2084
   40EC      O1  393   1.786   3.764   1.520 -0.1695 -0.7343 -0.6886
   40EC      H1  394   1.596   3.660   1.534 -0.2427  3.2067 -0.7451
   40EC      H2  395   1.698   3.617   1.664  2.0184  0.0468  0.2857
   40EC      O2  396   1.685   3.942   1.625  0.2985 -0.0553 -0.0186
   40EC      H3  397   1.655   3.840   1.789  0.6247  1.5050  0.8230
   40EC      H4  398   1.510   3.841   1.674  0.1268 -2.8135 -0.5775
   40EC      C3  399   1.793   3.916   1.527 -0.2613  0.4922 -0.0030
   40EC      O3  400   1.877   3.998   1.471  0.1987  0.0717 -0.7579
   41EC      C1  401   4.429   0.164   3.036  0.2923 -0.0577 -0.2893
   41EC      C2  402   4.306   0.064   2.982  0.7080 -0.5367  0.2029
   41EC      O1  403   4.358   0.258   3.130 -0.5461  0.1823 -1.1121
   41EC      H1  404   4.465   0.219   2.949 -0.8376  1.1741 -0.0186
   41EC      H2  405   0.015   0.100   3.068 -1.2095 -2.1416 -0.3886
   41EC      O2  406   4.189   0.116   3.062  0.4327 -0.0124  0.8882
   41EC      H3  407   4.323   4.457   3.014 -0.3794 -0.3263  1.5340
   41EC      H4  408   4.286   0.058   2.875 -0.4793 -0.3900  0.4060
   41EC      C3  409   4.215   0.208   3.169  0.3143 -0.6760  0.0886
   41EC      O3  410   4.125   0.286   3.208 -0.3114  0.0108  0.2109
   42EC      C1  411   1.202   3.177   2.121 -0.1604 -0.0569 -0.6358
   42EC      C2  412   1.223   3.075   2.247  0.0619  0.7019  0.4537
   42EC      O1  413   1.332   3.161   2.050  0.4488 -0.1105  0.0892
   42EC      H1  414   1.186   3.280   2.153 -1.3578 -0.0694 -1.1502
   42EC      H2  415   1.113   3.138   2.070 -1.8762 -0.8857  2.6717
   42EC      O2  416   1.373   3.031   2.239  0.3257 -0.1520  0.3426
   42EC      H3  417   1.157   2.989   2.231 -1.6859  1.7466  1.6622
   42EC      H4  418   1.202   3.105   2.350 -0.9280 -2.9643  1.4908
   42EC      C3  419   1.444   3.101   2.133  0.4111  0.0335  0.0198
   42EC      O3  420   1.550   3.081   2.087 -0.3219 -0.0160  0.0811
   43EC      C1  421   1.862   1.610   2.605 -0.0901 -0.8146 -0.1394
   43EC      C2  422   1.971   1.491   2.570  0.0920  0.1126  0.0285
   43EC      O1  423   1.781   1.615   2.475  0.0039 -0.4084 -0.8341
   43EC      H1  424   1.925   1.699   2.615  0.3776 -1.2511  1.0273
   43EC      H2  425   1.795   1.596   2.690  0.0184 -2.2637 -0.2672
   43EC      O2  426   1.928   1.445   2.435 -0.5162 -0.4145  0.4613
   43EC      H3  427   1.969   1.413   2.645  1.1237  1.8373  1.9297
   43EC      H4  428   2.068   1.540   2.566 -0.4658  1.2793  0.3304
   43EC      C3  429   1.821   1.522   2.367 -0.2576  0.1230  0.2042
   43EC      O3  430   1.745   1.485   2.279  0.3221  0.1398  0.0802
   44EC      C1  431   3.809   1.867   2.801 -0.6181 -0.1186 -0.2552
   44EC      C2  432   3.840   1.908   2.654 -0.6028 -0.3823  0.0062
   44EC      O1  433   3.948   1.861   2.862 -0.5310  0.2415  0.1776
   44EC      H1  434   3.766   1.767   2.798 -0.7640 -0.0418 -0.6831
   44EC      H2  435   3.752   1.936   2.863 -0.7125 -2.0115  1.9288
   44EC      O2  436   3.986   1.920   2.641 -0.1215  0.0811  0.0175
   44EC      H3  437   3.792   2.006   2.648  1.6247  0.8570  1.2576
   44EC      H4  438   3.809   1.837   2.577 -0.3477  0.2533 -0.7013
   44EC      C3  439   4.063   1.914   2.774  0.3540  0.1116  0.1287
   44EC      O3  440   4.178   1.883   2.782  0.2162 -0.0261 -0.1179
   45EC      C1  441   4.282   3.109   1.570 -0.3035 -0.3325 -0.0697
   45EC      C2  442   4.139   3.169   1.523  0.1005  0.4162 -0.8744
   45EC      O1  443   4.294   3.160   1.713  0.5847 -0.0177 -0.2805
   45EC      H1  444   4.360   3.133   1.498 -1.4544 -0.5225 -1.4283
   45EC      H2  445   4.274   3.000   1.579 -1.2722 -0.1959  0.8188
   45EC      O2  446   4.081   3.236   1.644 -0.8420 -0.2930 -0.4041
   45EC      H3  447   4.081   3.101   1.460  1.4463  0.1615 -1.8862
   45EC      H4  448   4.179   3.251   1.463 -1.2301 -0.5164 -3.1747
   45EC      C3  449   4.166   3.225   1.769 -0.0833 -0.1959  0.5203
   45EC      O3  450   4.163   3.281   1.875  0.0419 -0.1575 -0.4199
   46EC      C1  451   1.433   1.996   2.716 -0.3417 -0.5007  0.6057
   46EC      C2  452   1.319   1.917   2.805 -0.8293  0.4545  0.9145
   46EC      O1  453   1.529   2.045   2.820  0.3421 -0.3769 -0.0240
   46EC      H1  454   1.381   2.078   2.665  0.3749 -0.1913  0.3662
   46EC      H2  455   1.477   1.938   2.635 -0.5319  0.2111 -0.0257
   46EC      O2  456   1.369   1.937   2.944 -0.0380 -0.4034  0.3596
   46EC      H3  457   1.326   1.811   2.778  2.5714  0.1278  2.5989
   46EC      H4  458   1.222   1.961   2.782 -1.9185 -2.0815  0.3139
   46EC      C3  459   1.481   2.032   2.962 -0.9218 -0.6502 -0.6846
   46EC      O3  460   1.545   2.055   3.067 -0.0200 -0.3643 -0.4645
   47EC      C1  461   3.389   1.687   1.193  0.5273  0.3197 -0.2820
   47EC      C2  462   3.391   1.534   1.248 -0.4052  0.1158 -0.5602
   47EC      O1  463   3.507   1.694   1.099  0.3597 -0.5257 -0.1953
   47EC      H1  464   3.400   1.761   1.273  4.1747  0.6108 -0.8882
   47EC      H2  465   3.296   1.712   1.142  1.1127 -0.2433 -1.6799
   47EC      O2  466   3.507   1.470   1.180 -0.2118 -0.6297  0.1558
   47EC      H3  467   3.301   1.481   1.218  0.4169 -0.9206 -1.2818
   47EC      H4  468   3.417   1.522   1.353  1.4385  2.1680 -0.7123
   47EC      C3  469   3.595   1.569   1.092  0.3589 -0.5871 -0.0259
   47EC      O3  470   3.684   1.550   1.011 -0.1224 -0.3235  0.4693
   48EC      C1  471   2.128   4.151   0.050 -0.4650 -0.9699  0.1322
   48EC      C2  472   2.274   4.111   4.476  0.9229 -0.0777 -0.7849
   48EC      O1  473   2.034   4.056   4.480 -0.1509 -0.0078 -0.3785
   48EC      H1  474   2.082   4.249   0.039 -0.9413 -0.8585  2.4538
   48EC      H2  475   2.140   4.143   0.158  0.1768 -1.4839  0.0312
   48EC      O2  476   2.234   4.016   4.367  0.4835  0.5206 -0.6491
   48EC      H3  477   2.340   4.064   0.053 -2.3922  0.8125  3.1886
   48EC      H4  478   2.326   4.195   4.430 -0.5684  1.3663  0.0547
   48EC      C3  479   2.091   3.971   4.374 -0.4944  0.3780  0.0081
   48EC      O3  480   2.042   3.878   4.305  0.3282  0.1496  0.0948
   49EC      C1  481   2.044   1.241   1.812 -0.1832 -0.6072  0.4507
   49EC      C2  482   2.128   1.248   1.949 -0.6458 -0.1118  0.1325
   49EC      O1  483   1.939   1.353   1.829 -0.3484 -0.3154  0.1972
   49EC      H1  484   1.993   1.144   1.813  0.2397 -0.8455  2.2262
   49EC      H2  485   2.095   1.255   1.717 -0.9180 -0.5666  0.0495
   49EC      O2  486   2.064   1.361   2.030  0.1776 -0.9578  0.4471
   49EC      H3  487   2.236   1.259   1.935 -0.7926 -1.3695 -2.7068
   49EC      H4  488   2.125   1.149   1.993  0.0870  0.1918  0.8864
   49EC      C3  489   1.952   1.428   1.959  0.0459 -0.2681 -0.6661
   49EC      O3  490   1.900   1.536   1.987  0.2860 -0.0017  0.2818
   50EC      C1  491   1.060   3.357   3.321  0.2271  1.1018 -0.0745
   50EC      C2  492   0.977   3.221   3.338  0.1962  0.3743 -0.1659
   50EC      O1  493   0.952   3.462   3.313 -0.6464  0.1378  0.0827
   50EC      H1  494   1.112   3.359   3.224  0.3901  0.7932  0.0068
   50EC      H2  495   1.135   3.373   3.398  3.7825 -1.5432 -2.6516
   50EC      O2  496   0.835   3.277   3.346  0.7598 -0.0359 -0.1678
   50EC      H3  497   0.994   3.162   3.427  1.3281  2.0389  0.7750
   50EC      H4  498   0.990   3.155   3.252  0.5480 -2.6286  2.0557
   50EC      C3  499   0.813   3.423   3.311  0.4529  0.3595 -1.0935
   50EC      O3  500   0.722   3.495   3.353 -0.8566 -0.2813  0.4972
   51EC      C1  501   4.096   2.613   3.297  0.2413  0.2164 -0.3336
   51EC      C2  502   4.069   2.607   3.131 -0.2541 -0.3533 -0.4455
   51EC      O1  503   3.999   2.717   3.343 -0.6996  0.4614 -0.4433
   51EC      H1  504   4.199   2.640   3.319 -0.4453  2.0058  0.9526
   51EC      H2  505   4.075   2.513   3.334  0.1072  0.2330 -0.3635
   51EC      O2  506   3.951   2.700   3.115  0.1149  0.8932 -0.1746
   51EC      H3  507   4.050   2.503   3.103  1.1871  0.0768 -3.3945
   51EC      H4  508   4.157   2.650   3.083 -0.9388 -0.0831 -1.4955
   51EC      C3  509   3.907   2.773   3.237 -0.3892  0.0700 -0.2165
   51EC      O3  510   3.792   2.817   3.260 -0.8066 -0.3188 -0.3020
   52EC      C1  511   4.286   2.052   0.286 -0.1123 -0.1369 -0.3277
   52EC      C2  512   4.375   2.107   0.166  0.0296 -0.2979  0.2688
   52EC      O1  513   4.177   1.977   0.216  0.1512  0.1681 -0.1565
   52EC      H1  514   4.242   2.139   0.334 -1.3816 -1.3996  0.8852
   52EC      H2  515   4.336   1.987   0.357 -2.4835 -2.0290 -0.2462
   52EC      O2  516   4.292   2.061   0.045  0.1694 -0.1255  0.4981
   52EC      H3  517   4.473   2.062   0.155  0.1808  0.3577 -1.3408
   52EC      H4  518   4.395   2.215   0.165  1.4528 -0.5183  1.4938
   52EC      C3  519   4.174   1.973   0.075  0.3898  0.2753 -0.2230
   52EC      O3  520   4.077   1.959   0.000 -0.1783 -0.2273 -0.6534
   53EC      C1  521   4.322   2.820   2.632 -0.1462 -0.2054 -0.0845
   53EC      C2  522   4.361   2.851   2.787 -0.2335  0.2146  0.4869
   53EC      O1  523   4.203   2.726   2.649  0.0557  0.4735  0.3516
   53EC      H1  524   4.411   2.778   2.586 -0.2962  0.3647 -0.9073
   53EC      H2  525   4.289   2.909   2.577  0.0429 -0.5518 -0.7674
   53EC      O2  526   4.256   2.787   2.866  0.3430 -0.2177  0.0532
   53EC      H3  527   4.361   2.960   2.791  1.8808  0.2964 -0.5266
   53EC      H4  528   4.456   2.802   2.810 -0.6533 -0.2270  1.3553
   53EC      C3  529   4.158   2.703   2.786 -0.2770  0.1732 -0.1156
   53EC      O3  530   4.074   2.626   2.831 -0.1134 -0.3440 -0.0362
   54EC      C1  531   0.612   3.575   1.493 -0.8324  0.2928  0.2286
   54EC      C2  532   0.562   3.543   1.343 -0.0791  0.3259  0.1233
   54EC      O1  533   0.748   3.531   1.494  0.1818  0.4270  0.8176
   54EC      H1  534   0.566   3.532   1.581 -1.4834 -1.5292 -0.9440
   54EC      H2  535   0.599   3.683   1.503  0.4510  0.5644 -0.7084
   54EC      O2  536   0.682   3.473   1.276 -0.3583 -0.5794  0.8918
   54EC      H3  537   0.546   3.633   1.282  1.0327 -0.4954 -1.4571
   54EC      H4  538   0.482   3.469   1.340  1.7706 -1.7546 -0.8012
   54EC      C3  539   0.803   3.476   1.360 -0.1000  0.7356 -0.0859
   54EC      O3  540   0.894   3.404   1.340 -0.5439  0.1149  0.7731
   55EC      C1  541   3.214   1.626   4.463 -0.2289 -0.2053 -0.4259
   55EC      C2  542   3.297   1.651   4.320 -0.2896  1.0017 -0.4174
   55EC      O1  543   3.083   1.695   4.436 -0.1185  0.4218  0.1717
   55EC      H1  544   3.255   1.674   0.056 -2.0581  2.5566 -0.9422
   55EC      H2  545   3.197   1.522   4.488  0.7632 -0.6745 -1.6004
   55EC      O2  546   3.203   1.737   4.240 -0.0936 -0.0985 -0.6847
   55EC      H3  547   3.315   1.558   4.266  0.9719  0.5623  0.7062
   55EC      H4  548   3.393   1.697   4.343  0.1926 -0.1146 -0.1328
   55EC      C3  549   3.068   1.760   4.304  0.4263 -0.4016 -0.6410
   55EC      O3  550   2.969   1.796   4.249  0.2732 -0.6567 -0.0352
   56EC      C1  551   1.015   1.958   3.109  0.3037 -0.0310 -0.2039
   56EC      C2  552   0.922   1.883   3.222  0.1420  0.0326 -0.5091
   56EC      O1  553   1.076   2.072   3.191 -0.3573  0.4888 -0.3562
   56EC      H1  554   0.949   1.993   3.030  1.2351 -1.2295 -1.5522
   56EC      H2  555   1.078   1.880   3.067 -0.2136 -0.0655 -0.9311
   56EC      O2  556   0.943   1.965   3.346  0.0191  0.1541 -0.0110
   56EC      H3  557   0.959   1.782   3.240 -0.3722  0.2171  2.0007
   56EC      H4  558   0.818   1.879   3.189  0.0856 -0.5788 -0.2808
   56EC      C3  559   1.050   2.067   3.333 -0.2579  0.1007 -0.6069
   56EC      O3  560   1.060   2.165   3.405 -0.6418 -0.0751 -0.3314
   57EC      C1  561   2.932   1.038   0.746 -0.0416  0.5663 -0.1085
   57EC      C2  562   3.040   1.096   0.642  0.2952 -0.5742 -0.8338
   57EC      O1  563   2.974   0.895   0.768 -0.2990  0.1348 -0.2409
   57EC      H1  564   2.835   1.050   0.700  0.0207  0.8049 -0.1774
   57EC      H2  565   2.926   1.076   0.848 -0.9632 -1.5475  0.7004
   57EC      O2  566   3.115   0.972   0.599 -0.4979 -0.0754 -0.7018
   57EC      H3  567   3.110   1.168   0.683  1.2052 -0.8411 -1.8780
   57EC      H4  568   2.981   1.150   0.567 -0.5582  0.4098  0.5035
   57EC      C3  569   3.070   0.844   0.668  0.8175  0.2158  1.5592
   57EC      O3  570   3.130   0.736   0.671 -0.1620  0.0282 -0.5035
   58EC      C1  571   3.279   0.153   1.517  0.1627  0.1091 -0.1979
   58EC      C2  572   3.242   0.008   1.578  0.6673 -0.3981  0.7642
   58EC      O1  573   3.417   0.132   1.462  0.3055  0.1732  0.3848
   58EC      H1  574   3.276   0.227   1.597 -0.4201  0.3865 -0.4773
   58EC      H2  575   3.209   0.178   1.438 -0.5753 -0.7913  0.1500
   58EC      O2  576   3.361   4.422   1.548  0.2692  0.2626 -0.2497
   58EC      H3  577   3.158   4.448   1.536  0.7778 -2.1429  2.7556
   58EC      H4  578   3.222   0.013   1.685 -2.0649 -1.2384  0.3818
   58EC      C3  579   3.470   4.493   1.471 -0.6189 -0.0830 -0.2661
   58EC      O3  580   3.573   4.444   1.433 -0.1518  0.0928  0.1627
   59EC      C1  581   0.159   4.275   2.950  1.0193 -0.5508 -0.2445
   59EC      C2  582   0.296   4.250   2.867  0.2338  0.2083 -0.3867
   59EC      O1  583   0.148   4.430   2.940 -0.0938 -0.8030 -0.1713
   59EC      H1  584   0.151   4.238   3.052  1.2074 -1.3638 -0.5239
   59EC      H2  585   0.064   4.247   2.904 -0.8481  1.4015  2.1670
   59EC      O2  586   0.352   4.388   2.837  0.2033 -0.0114 -0.1181
   59EC      H3  587   0.290   4.195   2.774 -0.8354 -0.9021  0.3063
   59EC      H4  588   0.360   4.209   2.945  2.1463  1.4626 -1.2242
   59EC      C3  589   0.273   0.005   2.888 -0.1167 -0.4928  0.3074
   59EC      O3  590   0.283   0.125   2.851  0.1039  0.1972  0.0889
   60EC      C1  591   4.344   0.401   4.474  0.4781 -0.0350 -0.9545
   60EC      C2  592   4.438   0.325   4.374 -0.0227  0.0890 -0.6595
   60EC      O1  593   4.412   0.539   4.474 -0.6116  0.3488 -0.3110
   60EC      H1  594   4.342   0.355   0.077  0.6441  0.5018 -0.6963
   60EC      H2  595   4.238   0.411   4.448  0.1029  0.6667  0.6685
   60EC      O2  596   0.059   0.414   4.341 -0.0622  0.0583 -0.2192
   60EC      H3  597   4.392   0.307   4.277 -1.6512 -2.4449  0.4770
   60EC      H4  598   4.477   0.226   4.398  1.1112  0.2714 -1.6784
   60EC      C3  599   0.038   0.557   4.388  0.2100  0.2495  0.1478
   60EC      O3  600   0.119   0.650   4.385 -0.1151 -0.2419  0.7569
   61EC      C1  601   3.582   3.905   2.088 -0.3645  0.6178 -0.2882
   61EC      C2  602   3.449   3.868   2.164 -0.3054  0.0914 -0.3086
   61EC      O1  603   3.639   3.772   2.044 -0.0735 -0.2402  0.6946
   61EC      H1  604   3.642   3.946   2.169 -0.0707 -1.3391  0.5496
   61EC      H2  605   3.561   3.978   2.010 -0.0750  1.1327  0.1080
   61EC      O2  606   3.447   3.719   2.161 -0.6087 -0.2506  0.2451
   61EC      H3  607   3.358   3.898   2.112  0.3435  0.9955 -0.9597
   61EC      H4  608   3.453   3.909   2.264  2.7466  1.4486 -0.8502
   61EC      C3  609   3.545   3.657   2.070  0.0332 -0.3284 -0.1630
   61EC      O3  610   3.579   3.536   2.058  0.0565 -0.3535  0.1219
   62EC      C1  611   2.584   1.087   3.542  0.2350  0.5184  0.0114
   62EC      C2  612   2.699   1.139   3.650  0.5686  0.8955  0.1990
   62EC      O1  613   2.597   0.938   3.550 -0.8935  0.3602  0.2022
   62EC      H1  614   2.582   1.135   3.444 -0.6139 -0.6734 -0.5785
   62EC      H2  615   2.500   1.122   3.602 -0.0102  0.5479 -0.3472
   62EC      O2  616   2.735   1.007   3.717  0.5470 -0.1901 -0.2957
   62EC      H3  617   2.678   1.227   3.710 -0.7843 -0.4239  1.7629
   62EC      H4  618   2.788   1.160   3.592  2.1967 -3.1133  0.8794
   62EC      C3  619   2.702   0.883   3.640  0.2561 -0.0899  0.6708
   62EC      O3  620   2.705   0.776   3.697  0.7839  0.4455 -0.0837
   63EC      C1  621   0.241   1.007   3.839  0.0355  0.1089 -0.5310
   63EC      C2  622   0.262   1.132   3.940  0.1362  0.2441 -0.0346
   63EC      O1  623   0.245   0.887   3.934  0.0434  0.0857  0.0516
   63EC      H1  624   0.330   1.016   3.776 -0.7946  0.2101 -1.7243
   63EC      H2  625   0.147   1.013   3.785  0.3337 -1.4180 -1.2769
   63EC      O2  626   0.295   1.071   4.069  0.4564  0.4573 -0.5616
   63EC      H3  627   0.167   1.185   3.931  0.2787  0.3415 -1.1692
   63EC      H4  628   0.342   1.201   3.913  1.5503  0.0924  3.2775
   63EC      C3  629   0.279   0.920   4.077 -0.7425 -0.3006 -0.1582
   63EC      O3  630   0.257   0.849   4.177  0.2342 -0.1888 -0.5124
   64EC      C1  631   1.155   4.031   2.107 -0.5601  0.2488  0.0687
   64EC      C2  632   1.245   3.895   2.087 -0.1435 -0.0325 -0.2266
   64EC      O1  633   1.017   3.991   2.063  0.0744 -0.4699 -0.6047
   64EC      H1  634   1.194   4.108   2.041 -0.7741 -0.2704 -0.6789
   64EC      H2  635   1.156   4.047   2.215 -2.4999 -0.9941  0.3317
   64EC      O2  636   1.145   3.794   2.042 -0.2761  0.0572  0.3137
   64EC      H3  637   1.293   3.863   2.180  2.7779  1.7999 -0.9500
   64EC      H4  638   1.331   3.917   2.023  0.5596  1.4522  1.1484
   64EC      C3  639   1.007   3.847   2.013 -0.3581  0.3446  0.0038
   64EC      O3  640   0.916   3.781   1.970 -0.0341  0.5800  0.4530
   65EC      C1  641   1.943   1.906   4.170  0.1292 -0.3136 -0.2271
   65EC      C2  642   1.972   2.031   4.268  0.0249 -0.1485  0.2137
   65EC      O1  643   1.802   1.938   4.123  1.0107 -0.0089 -0.1028
   65EC      H1  644   1.957   1.802   4.203 -2.4761 -0.8797 -0.6549
   65EC      H2  645   1.999   1.916   4.077 -0.4251  1.2086 -0.4237
   65EC      O2  646   1.842   2.105   4.274  0.3442  0.4958 -0.4359
   65EC      H3  647   2.048   2.088   4.216  1.3383 -3.0155 -1.2767
   65EC      H4  648   2.009   2.003   4.366  0.6370 -1.2237 -0.3047
   65EC      C3  649   1.739   2.059   4.184  0.9431  0.1213 -0.5365
   65EC      O3  650   1.622   2.077   4.215 -0.3498  0.8018  0.1856
   66EC      C1  651   0.906   2.362   1.507 -0.5915  0.3797  0.8533
   66EC      C2  652   0.933   2.400   1.659  0.0403 -0.3265  0.0607
   66EC      O1  653   0.886   2.214   1.525 -0.4685  0.2438  0.5711
   66EC      H1  654   0.990   2.382   1.440  0.2460 -2.5696  0.8824
   66EC      H2  655   0.808   2.389   1.467 -2.1379 -2.9648  2.0008
   66EC      O2  656   0.916   2.274   1.741 -0.5763  0.1488  0.2442
   66EC      H3  657   0.847   2.461   1.686 -0.6009 -1.0054 -0.3819
   66EC      H4  658   1.021   2.459   1.682 -0.3388 -0.1867  1.2306
   66EC      C3  659   0.906   2.153   1.660  0.0445  0.1118  0.1716
   66EC      O3  660   0.911   2.035   1.698  0.0123 -0.2616  0.6334
   67EC      C1  661   0.776   3.390   0.985  0.0648  0.3465  0.5971
   67EC      C2  662   0.746   3.544   0.960 -0.0972  0.0138 -0.4257
   67EC      O1  663   0.816   3.332   0.856  0.8653  0.1477 -0.0155
   67EC      H1  664   0.691   3.338   1.030 -0.3007  0.1362 -0.3037
   67EC      H2  665   0.864   3.372   1.046  0.6986  1.3303 -0.0091
   67EC      O2  666   0.771   3.553   0.811 -0.0512  0.1450 -0.0908
   67EC      H3  667   0.796   3.608   1.033 -0.2768 -0.9814  0.6036
   67EC      H4  668   0.641   3.569   0.964  0.4941  3.0321 -1.2345
   67EC      C3  669   0.832   3.432   0.745  0.7762 -0.4430  0.3513
   67EC      O3  670   0.824   3.406   0.625 -0.2526 -0.3884  0.0027
   68EC      C1  671   2.898   3.745   0.037 -0.0370 -0.0556  0.3316
   68EC      C2  672   2.980   3.734   0.180  0.1509 -1.1842 -0.2941
   68EC      O1  673   2.950   3.636   4.442 -0.3474 -1.0112 -0.2299
   68EC      H1  674   2.903   3.851   0.011  0.9225 -0.6171 -1.9658
   68EC      H2  675   2.793   3.715   0.035  0.1293 -0.6073 -0.1776
   68EC      O2  676   3.069   3.615   0.152 -0.6479  0.6267 -0.0779
   68EC      H3  677   2.917   3.711   0.266  0.5487  0.1460  0.3834
   68EC      H4  678   3.029   3.830   0.198 -0.0014 -0.8678 -1.4420
   68EC      C3  679   3.072   3.564   0.005  0.1791 -0.2422  0.9063
   68EC      O3  680   3.132   3.470   4.450  0.0410  0.2056 -0.1567
   69EC      C1  681   0.866   1.454   3.700 -0.0994 -0.5567 -0.3285
   69EC      C2  682   0.729   1.504   3.628  0.4223 -0.6177  0.0405
   69EC      O1  683   0.944   1.582   3.724 -0.3457 -0.4858  0.8101
   69EC      H1  684   0.927   1.379   3.649  1.2310  1.1732 -1.4062
   69EC      H2  685   0.828   1.425   3.798  0.0205 -1.0427 -0.4250
   69EC      O2  686   0.758   1.649   3.600 -0.3679  0.7887  0.0962
   69EC      H3  687   0.642   1.486   3.691  0.3784 -1.1686 -0.1718
   69EC      H4  688   0.716   1.464   3.527  3.0942  1.2889 -1.1718
   69EC      C3  689   0.885   1.706   3.661  0.6308  0.8487  0.4783
   69EC      O3  690   0.917   1.823   3.668  0.2398  0.8965  0.6152
   70EC      C1  691   4.106   3.153   2.878  0.3966 -0.0541  0.8191
   70EC      C2  692   4.200   3.223   2.990 -0.1516 -0.3996 -0.3192
   70EC      O1  693   4.005   3.081   2.954  0.0671 -0.0599  0.1257
   70EC      H1  694   4.148   3.065   2.829 -1.5255 -1.7913  2.1141
   70EC      H2  695   4.050   3.226   2.820  1.2232  1.7329  2.1693
   70EC      O2  696   4.129   3.186   3.120 -0.3596  0.3766  0.2295
   70EC      H3  697   4.217   3.330   2.978  0.2795 -0.4677 -0.3484
   70EC      H4  698   4.302   3.186   2.991  0.2298 -0.1452 -5.1009
   70EC      C3  699   4.006   3.105   3.105  0.2662 -0.8554  0.2264
   70EC      O3  700   3.919   3.079   3.190 -0.3805  0.0486  0.1414
   71EC      C1  701   0.738   2.245   3.455 -0.0680 -0.3603  0.1871
   71EC      C2  702   0.781   2.164   3.585  0.3524  0.2925 -0.3720
   71EC      O1  703   0.780   2.385   3.478  0.5616 -1.1144 -0.6299
   71EC      H1  704   0.632   2.238   3.433  0.1504  1.6832 -1.8417
   71EC      H2  705   0.801   2.210   3.373  1.9190 -0.4350  1.6554
   71EC      O2  706   0.879   2.264   3.653 -0.4667  0.1240 -0.1569
   71EC      H3  707   0.834   2.071   3.564 -0.7666 -0.6734  0.8687
   71EC      H4  708   0.694   2.132   3.643  0.7352 -0.2431 -0.0790
   71EC      C3  709   0.886   2.400   3.588  0.2184  0.1116 -0.0102
   71EC      O3  710   0.949   2.503   3.617  0.0271  0.1307 -0.3491
   72EC      C1  711   0.415   2.195   3.032  0.1600 -0.3301 -0.2511
   72EC      C2  712   0.318   2.319   3.084  0.2981  0.6590  0.2934
   72EC      O1  713   0.486   2.255   2.912 -0.3749  0.2592  0.4378
   72EC      H1  714   0.368   2.103   2.999 -0.9311 -0.4919  1.6391
   72EC      H2  715   0.485   2.175   3.113  2.8210 -0.4285 -2.4198
   72EC      O2  716   0.349   2.430   2.982  0.2080  0.6500 -0.9238
   72EC      H3  717   0.332   2.356   3.186  0.9108  1.2162  0.0127
   72EC      H4  718   0.213   2.293   3.079  0.3856 -0.1365  1.9101
   72EC      C3  719   0.443   2.394   2.874  0.5679 -0.0258 -0.2005
   72EC      O3  720   0.504   2.466   2.795 -0.1940  0.7611 -0.3841
   73EC      C1  721   1.184   1.408   2.916 -0.5920  0.2592 -0.0035
   73EC      C2  722   1.250   1.527   3.006  0.2189 -0.9519  0.3248
   73EC      O1  723   1.293   1.352   2.838 -0.2284  0.2396  0.4603
   73EC      H1  724   1.100   1.429   2.849 -1.4289 -3.1415 -0.1932
   73EC      H2  725   1.136   1.335   2.981  3.0768 -0.0523  2.6282
   73EC      O2  726   1.389   1.537   2.940  0.3974 -0.2912 -0.4178
   73EC      H3  727   1.256   1.474   3.101  0.7024 -0.1755  0.7402
   73EC      H4  728   1.185   1.615   3.002  1.6739  0.0986 -0.9749
   73EC      C3  729   1.437   1.416   2.858  1.0934 -0.3485 -0.0572
   73EC      O3  730   1.519   1.430   2.769  0.0346  0.1380  0.4827
   74EC      C1  731   1.133   0.392   2.150 -0.1742 -0.7171 -0.5917
   74EC      C2  732   1.163   0.552   2.136 -0.0543  0.3902 -0.7733
   74EC      O1  733   1.083   0.388   2.295  0.3666 -0.1663  0.0055
   74EC      H1  734   1.217   0.324   2.144 -0.5777 -1.5694  2.1057
   74EC      H2  735   1.063   0.350   2.077  2.1115 -0.8229 -2.8549
   74EC      O2  736   1.147   0.609   2.277  0.4860  0.6000  0.4597
   74EC      H3  737   1.093   0.597   2.065 -1.7868 -2.2960 -0.9462
   74EC      H4  738   1.265   0.565   2.099  0.1925 -2.0562 -1.1772
   74EC      C3  739   1.081   0.508   2.372  0.4113  0.1022  0.2095
   74EC      O3  740   1.075   0.521   2.495  0.5606  0.0641  0.3541
   75EC      C1  741   2.467   1.758   3.437 -0.0600 -0.6340 -0.4450
   75EC      C2  742   2.406   1.724   3.291 -0.4059  0.1028 -0.4233
   75EC      O1  743   2.405   1.652   3.527  0.2566  0.0381  0.1079
   75EC      H1  744   2.454   1.860   3.472  0.8146 -1.4326  2.4621
   75EC      H2  745   2.575   1.741   3.444 -0.3491 -2.9076 -0.7217
   75EC      O2  746   2.304   1.607   3.327 -0.4562 -0.1299  0.1810
   75EC      H3  747   2.487   1.687   3.228  0.8237 -1.0340  1.7265
   75EC      H4  748   2.355   1.809   3.247  0.5785  0.7177 -0.3991
   75EC      C3  749   2.308   1.561   3.462 -0.4284 -0.6405  0.2432
   75EC      O3  750   2.243   1.474   3.515  0.1726  0.3350 -0.6581
   76EC      C1  751   0.795   3.413   1.918 -0.2068 -0.1530  0.0735
   76EC      C2  752   0.935   3.386   1.852  0.5572 -0.0033  0.0746
   76EC      O1  753   0.730   3.280   1.933  0.5947  0.4280  0.2416
   76EC      H1  754   0.735   3.475   1.852  1.8417  1.4394 -0.4004
   76EC      H2  755   0.811   3.470   2.009 -0.2129 -0.1452  0.0697
   76EC      O2  756   0.943   3.229   1.856 -0.1378 -0.1925 -0.2988
   76EC      H3  757   1.012   3.434   1.912  2.6028 -2.1198 -0.6942
   76EC      H4  758   0.940   3.435   1.755 -1.9580  0.4167  0.0931
   76EC      C3  759   0.817   3.165   1.904  0.1434  0.1381 -0.6733
   76EC      O3  760   0.786   3.050   1.874  0.1257  0.4287 -0.1653
   77EC      C1  761   3.621   2.415   3.421 -1.1223 -0.5074 -0.0979
   77EC      C2  762   3.777   2.416   3.390 -0.6163  0.9731 -0.1303
   77EC      O1  763   3.609   2.515   3.535 -0.3362  0.0251 -0.5650
   77EC      H1  764   3.609   2.314   3.462  0.7402 -1.2563 -1.2594
   77EC      H2  765   3.556   2.422   3.335 -1.0089  0.1580 -0.1319
   77EC      O2  766   3.841   2.498   3.502 -0.1881  0.3141  0.7340
   77EC      H3  767   3.815   2.480   3.311  2.0749  0.8888  1.0043
   77EC      H4  768   3.829   2.320   3.389  0.6925  1.6625 -0.4073
   77EC      C3  769   3.742   2.566   3.593  0.5659 -0.1792  0.2799
   77EC      O3  770   3.759   2.578   3.715 -0.2835  0.5748  0.3068
   78EC      C1  771   0.072   3.022   2.031 -0.2876  0.6350 -0.8064
   78EC      C2  772   4.458   3.098   2.126 -0.2324 -0.1279 -0.3264
   78EC      O1  773   0.087   3.120   1.912  0.1001  0.1744 -0.3403
   78EC      H1  774   0.043   2.918   2.014 -1.0626  0.9120 -1.2570
   78EC      H2  775   0.170   3.022   2.077 -1.1711 -0.0253  1.1734
   78EC      O2  776   4.437   3.228   2.059 -0.0148  0.0053 -0.3202
   78EC      H3  777   0.001   3.116   2.226  2.0827  0.5146 -1.2594
   78EC      H4  778   4.365   3.042   2.133  0.2409 -0.7199  2.0701
   78EC      C3  779   0.006   3.244   1.923 -0.1935 -0.1912 -0.6569
   78EC      O3  780   0.011   3.345   1.854 -0.0382  0.0519 -0.3123
   79EC      C1  781   3.256   1.030   1.930 -0.2646  0.3240  0.5653
   79EC      C2  782   3.266   0.948   2.066 -0.3550  0.3427  0.7012
   79EC      O1  783   3.174   1.156   1.968  0.2032 -0.0406 -0.4031
   79EC      H1  784   3.217   0.975   1.844 -0.6749 -0.1752  1.0561
   79EC      H2  785   3.361   1.043   1.907  0.3435 -1.3282  2.2089
   79EC      O2  786   3.188   1.036   2.167  0.9834  0.2916  0.1970
   79EC      H3  787   3.373   0.935   2.083  0.3563  0.3317 -2.9778
   79EC      H4  788   3.219   0.850   2.069 -0.6834  0.5153  1.6958
   79EC      C3  789   3.116   1.155   2.115  0.2733  0.0068  1.1059
   79EC      O3  790   3.084   1.252   2.181  0.1340 -0.4325 -0.4461
   80EC      C1  791   2.770   3.886   0.534  0.0707  0.1199 -0.5555
   80EC      C2  792   2.642   3.978   0.515 -0.2438 -0.2491  0.9460
   80EC      O1  793   2.839   3.895   0.398 -0.3612 -0.0743 -0.0685
   80EC      H1  794   2.751   3.782   0.560 -0.3680  0.5907  1.1356
   80EC      H2  795   2.831   3.934   0.610 -0.7185  3.1208 -1.6715
   80EC      O2  796   2.662   4.034   0.375  0.5462 -0.0023 -0.3926
   80EC      H3  797   2.619   4.046   0.597 -2.6698 -0.7006  0.7161
   80EC      H4  798   2.552   3.916   0.517  0.1081 -0.7571  1.5841
   80EC      C3  799   2.775   3.990   0.298 -0.5650  0.4885 -0.1324
   80EC      O3  800   2.835   4.053   0.215  0.3048 -0.9428  0.6331
   81EC      C1  801   0.965   2.871   2.461  0.5136 -0.0942 -0.2644
   81EC      C2  802   0.923   2.944   2.601 -0.4005  0.3341  0.8020
   81EC      O1  803   0.943   2.724   2.496  0.6607  0.1102 -0.0797
   81EC      H1  804   1.069   2.894   2.438  1.1550 -0.3567  2.1281
   81EC      H2  805   0.899   2.911   2.383 -2.7625 -1.8217  1.3990
   81EC      O2  806   0.873   2.833   2.687 -0.3051  0.4752 -0.3569
   81EC      H3  807   0.848   3.020   2.580 -0.4426 -0.1423 -0.9681
   81EC      H4  808   1.017   2.991   2.632  0.6109 -0.3375 -1.0406
   81EC      C3  809   0.886   2.695   2.633 -0.2911 -0.6326 -0.9316
   81EC      O3  810   0.831   2.595   2.671  0.0588 -0.3731  0.1500
   82EC      C1  811   2.542   2.566   3.990 -0.7014  0.2889 -0.0182
   82EC      C2  812   2.619   2.614   3.855  1.3453  0.6100 -0.0507
   82EC      O1  813   2.654   2.534   4.086 -0.3716 -0.1133 -0.1175
   82EC      H1  814   2.501   2.469   3.965  0.4375  0.2327 -1.8775
   82EC      H2  815   2.464   2.633   4.027 -2.4562 -2.6372  2.0117
   82EC      O2  816   2.762   2.604   3.896  0.0767  0.5260  0.0152
   82EC      H3  817   2.596   2.721   3.848 -2.6358  0.1306  2.4935
   82EC      H4  818   2.597   2.560   3.763 -1.9833  3.2429 -1.0066
   82EC      C3  819   2.794   2.546   4.031 -0.0365 -0.5737  0.0416
   82EC      O3  820   2.897   2.580   4.092  0.0868 -0.1720  0.5681
   83EC      C1  821   3.236   2.850   2.871 -0.2662 -0.0913 -0.5078
   83EC      C2  822   3.081   2.847   2.846  0.7354  1.1004  0.0925
   83EC      O1  823   3.299   2.810   2.743  0.4694 -0.3465  0.2359
   83EC      H1  824   3.263   2.773   2.944  0.1779 -1.7926 -2.3871
   83EC      H2  825   3.266   2.947   2.911 -0.5897 -0.0895 -0.2672
   83EC      O2  826   3.068   2.802   2.697 -0.4347  0.3320 -0.0116
   83EC      H3  827   3.041   2.948   2.839 -2.3361 -0.0656 -0.8256
   83EC      H4  828   3.025   2.802   2.928  1.4369 -0.0417 -0.0324
   83EC      C3  829   3.199   2.770   2.635 -0.4480 -0.0361  0.0718
   83EC      O3  830   3.229   2.753   2.517  0.2047  0.3545 -0.1464
   84EC      C1  831   3.184   1.025   3.860 -0.7427 -0.9534 -0.2641
   84EC      C2  832   3.109   1.097   3.991  0.1761 -0.5096  0.2316
   84EC      O1  833   3.108   0.900   3.845 -0.7298 -0.3505 -0.2674
   84EC      H1  834   3.292   1.011   3.862 -0.5833  0.0865  2.1626
   84EC      H2  835   3.173   1.085   3.769 -1.2615  0.2669  0.5794
   84EC      O2  836   2.993   1.010   4.007  0.0772  0.3120 -0.2960
   84EC      H3  837   3.087   1.199   3.960 -1.2766 -1.0668 -0.6701
   84EC      H4  838   3.172   1.104   4.080  0.1869 -0.8853  0.2555
   84EC      C3  839   2.984   0.890   3.922 -0.0303  0.5875  0.0948
   84EC      O3  840   2.898   0.799   3.913  0.1748  0.0962 -0.4376
   85EC      C1  841   2.443   0.797   0.819  0.3182 -0.3454  0.1967
   85EC      C2  842   2.465   0.643   0.787  0.2133  0.4443 -0.0905
   85EC      O1  843   2.288   0.805   0.823 -0.5697 -0.1107  0.3962
   85EC      H1  844   2.469   0.863   0.736  1.1014 -1.9705 -0.8957
   85EC      H2  845   2.493   0.844   0.904 -0.6226  0.1461  0.4909
   85EC      O2  846   2.325   0.581   0.774  0.5190 -0.1927  0.0064
   85EC      H3  847   2.522   0.589   0.862 -1.3705 -1.4617 -0.1887
   85EC      H4  848   2.536   0.625   0.707 -0.3788  1.2630 -0.8167
   85EC      C3  849   2.212   0.676   0.813 -0.1525  0.6204 -0.0494
   85EC      O3  850   2.094   0.659   0.803 -0.0508  0.2555  0.8173
   86EC      C1  851   4.218   3.457   2.168  0.1495 -0.3389 -0.0150
   86EC      C2  852   4.060   3.423   2.177  1.2423  0.3060 -0.0248
   86EC      O1  853   4.227   3.608   2.213  0.3895  0.3390 -0.5096
   86EC      H1  854   4.241   3.458   2.062 -0.7317 -0.5849 -0.2183
   86EC      H2  855   4.291   3.387   2.209  0.9003 -0.6234 -1.7631
   86EC      O2  856   4.001   3.552   2.234 -0.0265  0.0777 -0.4908
   86EC      H3  857   4.032   3.337   2.238 -2.1017  1.9574  1.0547
   86EC      H4  858   4.007   3.404   2.084 -0.1936 -1.3111  1.0624
   86EC      C3  859   4.091   3.664   2.245 -0.4157 -0.5623  0.5492
   86EC      O3  860   4.074   3.759   2.323 -0.0239  0.5027 -0.1242
   87EC      C1  861   2.837   3.551   1.337  0.4375 -0.5999  0.2389
   87EC      C2  862   2.745   3.680   1.296 -0.2405 -0.8422  0.2495
   87EC      O1  863   2.750   3.481   1.434 -0.2862  0.1254 -0.1289
   87EC      H1  864   2.930   3.577   1.389  0.6118  1.6597 -1.0505
   87EC      H2  865   2.864   3.485   1.255  1.7923 -0.3163  0.4238
   87EC      O2  866   2.647   3.688   1.406  0.5333  0.1582 -1.2890
   87EC      H3  867   2.691   3.643   1.209 -1.7497  2.9275 -0.6263
   87EC      H4  868   2.795   3.774   1.271  0.2222 -0.6740  1.7199
   87EC      C3  869   2.648   3.565   1.500 -0.3933  0.0063 -0.1247
   87EC      O3  870   2.576   3.543   1.600 -0.7132  0.3090 -0.2215
   88EC      C1  871   0.514   1.907   2.481  0.2569  0.0621  0.9499
   88EC      C2  872   0.650   1.937   2.408 -0.6455 -0.2884  0.8776
   88EC      O1  873   0.495   2.036   2.571  0.2940  0.3430  0.4072
   88EC      H1  874   0.506   1.810   2.530  0.0179  0.2800  1.3562
   88EC      H2  875   0.443   1.902   2.399  0.6750 -0.1129  0.5976
   88EC      O2  876   0.707   2.063   2.477 -0.4955 -0.1618 -0.0854
   88EC      H3  877   0.640   1.957   2.301  2.2783  0.9957  0.7503
   88EC      H4  878   0.730   1.866   2.432  0.5273  1.3808  2.2080
   88EC      C3  879   0.621   2.121   2.587  1.3270  0.3557 -0.2585
   88EC      O3  880   0.632   2.236   2.622 -0.3994 -0.2374  0.1404
   89EC      C1  881   4.469   4.182   1.573  0.6577 -0.5124  0.6197
   89EC      C2  882   0.011   4.050   1.655  0.3065  0.8689  0.3848
   89EC      O1  883   0.069   4.285   1.623  0.1162 -0.4479 -0.0702
   89EC      H1  884   4.370   4.216   1.603 -0.2449 -3.4182  1.2291
   89EC      H2  885   4.476   4.177   1.464 -0.5062  0.1278  0.4953
   89EC      O2  886   0.112   4.095   1.757 -0.5403  0.3980 -0.3508
   89EC      H3  887   0.064   3.985   1.585 -0.5545  1.2345 -0.6454
   89EC      H4  888   4.425   3.988   1.691  0.7476  0.2585  0.3509
   89EC      C3  889   0.156   4.239   1.742  0.5139 -0.0598 -0.6652
   89EC      O3  890   0.245   4.303   1.796  0.2330  0.7683  0.3952
   90EC      C1  891   3.341   2.401   2.241 -0.0419  0.4041  0.5067
   90EC      C2  892   3.376   2.554   2.189 -0.0574 -0.2254 -0.4331
   90EC      O1  893   3.207   2.375   2.169  0.6308  0.4048  0.4069
   90EC      H1  894   3.317   2.406   2.348  0.9200 -0.7972  0.8074
   90EC      H2  895   3.411   2.321   2.219 -2.3318 -0.6065 -4.1721
   90EC      O2  896   3.267   2.581   2.093  0.2663  0.0678  0.1749
   90EC      H3  897   3.474   2.560   2.140  0.0343  1.6992 -0.0845
   90EC      H4  898   3.372   2.634   2.263 -0.1831  0.9318 -1.6517
   90EC      C3  899   3.177   2.466   2.054  0.4520 -0.0909 -0.5687
   90EC      O3  900   3.069   2.478   1.998 -0.4892 -1.0418 -0.4318
   91EC      C1  901   4.215   1.494   1.243  0.2032 -0.3712 -0.4889
   91EC      C2  902   4.309   1.482   1.119 -0.3868 -0.5754  0.7121
   91EC      O1  903   4.073   1.486   1.182 -0.0506  0.7449 -0.1188
   91EC      H1  904   4.235   1.585   1.298  0.1669 -0.8531  0.3469
   91EC      H2  905   4.232   1.408   1.308  0.5273 -1.9266 -2.4929
   91EC      O2  906   4.220   1.440   1.008  0.4375  0.8415 -0.3266
   91EC      H3  907   4.407   1.439   1.133 -0.0768 -0.6754 -1.4244
   91EC      H4  908   4.329   1.586   1.092  0.0324 -0.9669 -0.5579
   91EC      C3  909   4.071   1.445   1.036 -0.3991  0.0028 -0.2096
   91EC      O3  910   3.985   1.457   0.949 -0.1325 -0.3004 -0.5386
   92EC      C1  911   2.043   2.546   1.122 -0.7809 -0.1244  0.0243
   92EC      C2  912   1.899   2.603   1.164  0.0001 -0.2231 -0.5754
   92EC      O1  913   2.129   2.669   1.148 -0.1453 -0.3059  0.3439
   92EC      H1  914   2.049   2.513   1.019 -0.6189 -1.6870  0.5067
   92EC      H2  915   2.086   2.468   1.185  0.5929  1.4885  1.1937
   92EC      O2  916   1.922   2.752   1.183  0.2818 -0.7723  0.2179
   92EC      H3  917   1.874   2.555   1.259  1.3430 -3.0539 -1.5315
   92EC      H4  918   1.836   2.582   1.077  1.4141  3.1277 -2.5946
   92EC      C3  919   2.060   2.793   1.160  0.2112 -0.2157  0.2441
   92EC      O3  920   2.104   2.899   1.195  0.2937  0.2026 -0.2562
   93EC      C1  921   2.943   1.935   3.545  0.2501  0.1756 -0.1417
   93EC      C2  922   2.939   1.774   3.533 -0.1928  0.0798 -0.4180
   93EC      O1  923   2.883   1.964   3.688 -0.1516 -0.1081  0.2451
   93EC      H1  924   2.882   1.989   3.473  1.5055  2.1885  0.2316
   93EC      H2  925   3.041   1.976   3.521  1.0433 -1.4952  0.0754
   93EC      O2  926   2.865   1.731   3.653  1.0973 -0.2784 -0.9301
   93EC      H3  927   3.041   1.734   3.530  0.0312  0.2505  2.2903
   93EC      H4  928   2.879   1.744   3.447 -4.0105  1.1039  1.7049
   93EC      C3  929   2.831   1.843   3.751  0.6267 -0.5146 -0.2971
   93EC      O3  930   2.811   1.832   3.869  0.5236  0.4888 -0.0314
   94EC      C1  931   3.271   0.431   0.810 -0.2898 -0.4599 -0.0929
   94EC      C2  932   3.269   0.392   0.656  0.3656 -0.2793  0.1817
   94EC      O1  933   3.186   0.320   0.875 -0.0755 -0.4607  0.7196
   94EC      H1  934   3.220   0.527   0.823  1.1432  0.6275 -1.8832
   94EC      H2  935   3.372   0.439   0.851  0.7209  1.8445 -2.6701
   94EC      O2  936   3.176   0.283   0.648 -0.1312  0.6632  0.2222
   94EC      H3  937   3.369   0.356   0.633 -0.0954 -0.9481 -0.8543
   94EC      H4  938   3.242   0.481   0.599  0.3024 -0.4309 -0.0274
   94EC      C3  939   3.124   0.228   0.780  0.2428 -0.9709 -0.6355
   94EC      O3  940   3.018   0.176   0.793  0.4561 -0.3145  0.1411
   95EC      C1  941   1.240   2.737   4.346 -1.2194  0.4983  0.4739
   95EC      C2  942   1.353   2.856   4.357  0.1559  0.2493  0.3413
   95EC      O1  943   1.114   2.800   4.395 -0.3508 -0.0412  0.5350
   95EC      H1  944   1.267   2.658   4.417  0.7534  0.4266 -0.2821
   95EC      H2  945   1.229   2.702   4.244 -0.0476 -2.1494  1.1608
   95EC      O2  946   1.274   2.965   4.426  0.2858 -0.7717  0.2263
   95EC      H3  947   1.373   2.895   4.257 -0.9044  3.1425  1.1559
   95EC      H4  948   1.447   2.823   4.401  1.3977  1.9821 -0.8611
   95EC      C3  949   1.124   2.947   4.436 -0.9812 -0.0980 -0.1035
   95EC      O3  950   1.044   3.019   4.487  0.6621  0.1787  0.0738
   96EC      C1  951   0.883   0.780   0.937 -1.1031  0.1157  0.1215
   96EC      C2  952   0.973   0.804   1.074  0.4718  0.1232  0.4430
   96EC      O1  953   0.745   0.746   0.989  0.7968  0.5364  0.1979
   96EC      H1  954   0.912   0.690   0.883 -0.7877  0.8999 -1.0478
   96EC      H2  955   0.880   0.862   0.866 -0.2727  0.0239 -0.0327
   96EC      O2  956   0.865   0.786   1.181 -0.2318  0.5989 -0.4500
   96EC      H3  957   1.002   0.909   1.070 -1.8400  0.8074  0.0551
   96EC      H4  958   1.063   0.746   1.096  0.2381 -0.0560  0.9513
   96EC      C3  959   0.728   0.772   1.134 -0.5416 -0.5877 -0.1132
   96EC      O3  960   0.638   0.730   1.204 -0.2346  0.0950  0.0369
   97EC      C1  961   1.979   0.239   3.864 -0.6345 -0.0254  0.6465
   97EC      C2  962   1.971   0.287   4.018 -0.0354 -0.1216 -0.2373
   97EC      O1  963   1.839   0.285   3.810  0.3775  0.1477  0.5806
   97EC      H1  964   1.999   0.132   3.852 -1.4814 -0.0682 -0.5262
   97EC      H2  965   2.058   0.292   3.811 -1.1940 -1.8391 -2.1835
   97EC      O2  966   1.844   0.370   4.023  0.2085  0.5239 -0.0285
   97EC      H3  967   2.049   0.356   4.050  0.9150 -1.1775 -0.1841
   97EC      H4  968   1.968   0.206   4.091  1.7831  1.4227  1.6769
   97EC      C3  969   1.763   0.375   3.901  0.3686 -0.9667  0.4236
   97EC      O3  970   1.643   0.405   3.890  0.7088  0.0911  0.9117
   98EC      C1  971   4.346   0.189   4.068 -0.2694  0.1328 -0.0133
   98EC      C2  972   4.199   0.202   4.142 -0.3555  0.5438  0.7464
   98EC      O1  973   4.314   0.114   3.940  0.5629 -0.2288  0.0296
   98EC      H1  974   4.401   0.119   4.132  0.7554 -0.0876 -1.0895
   98EC      H2  975   4.392   0.286   4.053  0.0379  0.0492  0.3429
   98EC      O2  976   4.114   0.103   4.066  0.3557  0.1595 -0.2860
   98EC      H3  977   4.151   0.298   4.127 -0.2210  0.5860  0.5814
   98EC      H4  978   4.204   0.185   4.249 -1.0755 -0.2211  0.6784
   98EC      C3  979   4.167   0.061   3.937  0.4111 -0.0177  0.5752
   98EC      O3  980   4.139   4.458   3.872 -0.2447  0.3304 -0.0504
   99EC      C1  981   3.376   1.673   3.789  0.1789  0.0132  1.0417
   99EC      C2  982   3.250   1.634   3.698  0.1014 -0.7122  0.5400
   99EC      O1  983   3.317   1.770   3.891  0.4160 -0.1492  0.0634
   99EC      H1  984   3.458   1.724   3.738  0.1683  0.9207  1.8953
   99EC      H2  985   3.427   1.596   3.846  2.6417  0.3802 -0.5283
   99EC      O2  986   3.131   1.701   3.772 -0.3126 -0.4997  0.2016
   99EC      H3  987   3.236   1.529   3.675 -0.8079 -0.3362 -0.7538
   99EC      H4  988   3.267   1.683   3.602  1.2027 -0.6551  0.7510
   99EC      C3  989   3.166   1.795   3.883  0.1443 -0.2914  0.3431
   99EC      O3  990   3.089   1.852   3.966 -0.7429 -0.1096 -0.6776
  100EC      C1  991   1.420   1.509   0.010 -0.2473 -0.5117  0.3420
  100EC      C2  992   1.473   1.561   0.152 -0.1474  1.0087  0.1364
  100EC      O1  993   1.434   1.624   4.411  0.2475  0.3318  0.1618
  100EC      H1  994   1.317   1.484   0.033 -0.2942 -1.7546 -1.0624
  100EC      H2  995   1.482   1.421   4.489  0.3948  0.0212 -0.1645
  100EC      O2  996   1.547   1.697   0.111  0.5636  0.3214 -0.2924
  100EC      H3  997   1.539   1.487   0.198 -1.9595 -0.8610 -0.1198
  100EC      H4  998   1.399   1.591   0.226 -0.8550  1.9576 -0.9299
  100EC      C3  999   1.523   1.735   4.466  0.6601 -0.2364 -0.0328
  100EC      O3 1000   1.522   1.850   4.434 -0.0728 -0.1954  0.2528
  101EC      C1 1001   2.215   2.035   1.383  0.2821  0.7283 -0.5139
  101EC      C2 1002   2.248   2.190   1.361  0.1483 -0.3870  0.0710
  101EC      O1 1003   2.143   1.995   1.254  0.2450  0.3277 -0.7684
  101EC      H1 1004   2.153   2.030   1.472  1.0692  3.5378  0.2803
  101EC      H2 1005   2.307   1.979   1.397 -0.6032 -0.5925  0.2591
  101EC      O2 1006   2.188   2.217   1.224  0.4102  0.1615 -0.4366
  101EC      H3 1007   2.356   2.201   1.354  0.1556 -0.1435  0.4953
  101EC      H4 1008   2.214   2.245   1.449  0.0758 -0.7775  0.2894
  101EC      C3 1009   2.124   2.104   1.158  0.4576 -0.2662  0.0632
  101EC      O3 1010   2.092   2.096   1.041 -0.5527 -0.1080  1.1636
  102EC      C1 1011   1.552   3.949   2.461 -0.2208 -0.2240  0.5119
  102EC      C2 1012   1.430   4.033   2.396 -0.4373 -0.5710 -0.6443
  102EC      O1 1013   1.655   3.951   2.346 -0.0143  0.3798  0.2208
  102EC      H1 1014   1.523   3.850   2.495  1.8635 -0.5058  1.6510
  102EC      H2 1015   1.594   3.990   2.553  0.4215  1.7643 -0.5850
  102EC      O2 1016   1.471   4.059   2.253 -0.2771  0.1266 -0.1876
  102EC      H3 1017   1.419   4.127   2.449 -1.0902 -0.3469 -1.1670
  102EC      H4 1018   1.346   3.963   2.398 -1.0112  0.1028  1.1617
  102EC      C3 1019   1.606   4.015   2.215  0.0690  0.1672 -0.4738
  102EC      O3 1020   1.643   3.997   2.100 -0.0588 -0.0769  0.0010
  103EC      C1 1021   1.694   3.667   1.018  0.2833  0.8585  0.0251
  103EC      C2 1022   1.699   3.630   1.170 -0.4729  0.2475 -0.6202
  103EC      O1 1023   1.724   3.814   1.005  0.3885  0.4852 -0.6202
  103EC      H1 1024   1.593   3.641   0.985 -0.2611 -0.8245  2.7532
  103EC      H2 1025   1.772   3.611   0.967  0.4577 -2.3615  3.4058
  103EC      O2 1026   1.733   3.766   1.232  0.3880  0.3421 -0.0520
  103EC      H3 1027   1.786   3.568   1.191 -1.5311 -0.8889  0.6601
  103EC      H4 1028   1.605   3.584   1.201  0.2319 -0.3408  0.7141
  103EC      C3 1029   1.761   3.880   1.135 -0.6119 -0.6861 -0.8462
  103EC      O3 1030   1.762   4.000   1.163  0.6140 -0.4692  0.2631
  104EC      C1 1031   3.360   0.792   2.532  0.2511  0.3922  0.6232
  104EC      C2 1032   3.378   0.938   2.458 -0.2987 -0.0151  0.2041
  104EC      O1 1033   3.391   0.823   2.680  0.0362  0.3076  0.0468
  104EC      H1 1034   3.437   0.728   2.488 -0.0073  2.0248 -2.5259
  104EC      H2 1035   3.270   0.735   2.507 -0.4923  0.3930  3.0770
  104EC      O2 1036   3.421   1.028   2.569  0.0185  0.0518 -0.5129
  104EC      H3 1037   3.283   0.977   2.421  0.8024  0.2278 -2.6311
  104EC      H4 1038   3.451   0.938   2.377 -0.7854  0.1420 -0.2422
  104EC      C3 1039   3.429   0.970   2.703 -0.3467 -0.5850 -0.2107
  104EC      O3 1040   3.450   1.032   2.812  0.2580  0.6421  0.2109
  105EC      C1 1041   2.491   4.155   2.102 -0.7316 -0.4913 -0.1795
  105EC      C2 1042   2.394   4.047   2.045  0.4042  0.0805 -0.1779
  105EC      O1 1043   2.569   4.211   1.985  0.2480  0.0950  0.5780
  105EC      H1 1044   2.570   4.107   2.160 -0.7902  0.5339  0.8002
  105EC      H2 1045   2.445   4.228   2.170 -0.2443 -0.5909  0.2661
  105EC      O2 1046   2.426   4.049   1.895 -0.7461  0.3837  0.3439
  105EC      H3 1047   2.292   4.075   2.073 -0.1647 -1.1725 -0.9088
  105EC      H4 1048   2.415   3.943   2.073 -0.6877 -0.0757  0.1169
  105EC      C3 1049   2.542   4.139   1.856  0.6680 -0.0217  0.5628
  105EC      O3 1050   2.576   4.177   1.743  0.1261 -0.3237  0.1401
  106EC      C1 1051   3.387   3.737   3.237 -0.5676  0.7832 -0.3678
  106EC      C2 1052   3.468   3.603   3.284 -0.4237 -0.5328  1.0717
  106EC      O1 1053   3.285   3.756   3.345 -0.6509 -0.5358  0.2793
  106EC      H1 1054   3.337   3.722   3.141 -1.3323  0.8947  0.0014
  106EC      H2 1055   3.454   3.823   3.235  1.3411 -0.6304 -2.4555
  106EC      O2 1056   3.418   3.578   3.423  0.2647 -0.2049  0.1810
  106EC      H3 1057   3.575   3.621   3.276 -0.6775  0.6395 -0.0633
  106EC      H4 1058   3.458   3.516   3.219 -1.4170  0.4638 -0.1511
  106EC      C3 1059   3.304   3.665   3.468  0.2397 -0.6691  0.1411
  106EC      O3 1060   3.227   3.639   3.564  0.0192 -0.5098 -0.3703
  107EC      C1 1061   2.992   4.232   2.765  0.8544 -0.1682 -0.6370
  107EC      C2 1062   2.879   4.330   2.723  1.4513  0.7040  0.2559
  107EC      O1 1063   2.931   4.092   2.742 -0.1049  0.2784  0.1683
  107EC      H1 1064   3.022   4.236   2.869  1.0367 -0.4428 -0.6810
  107EC      H2 1065   3.082   4.246   2.706  2.3336 -1.3227  1.2723
  107EC      O2 1066   2.775   4.240   2.653  0.0530  0.1132  0.3179
  107EC      H3 1067   2.922   4.403   2.655 -0.6061 -0.6428 -2.7222
  107EC      H4 1068   2.836   4.363   2.817 -1.1791 -1.4466 -0.0715
  107EC      C3 1069   2.799   4.090   2.679  0.1511  0.1200 -0.4097
  107EC      O3 1070   2.715   4.005   2.707 -0.5863 -0.5031 -0.5244
  108EC      C1 1071   1.040   3.590   0.172  0.1151  0.6681 -0.2450
  108EC      C2 1072   1.009   3.452   0.252  1.1334 -0.4469  0.2314
  108EC      O1 1073   1.039   3.549   0.024 -0.2321  0.6689 -0.5730
  108EC      H1 1074   1.141   3.626   0.195 -0.0089 -0.2700  1.9891
  108EC      H2 1075   0.966   3.661   0.207  0.3511  0.7848  0.0197
  108EC      O2 1076   0.998   3.347   0.146  0.2330 -0.3710  0.6426
  108EC      H3 1077   0.911   3.463   0.299  0.9914  0.1170 -0.1861
  108EC      H4 1078   1.080   3.413   0.325  1.7326  0.5034  0.1725
  108EC      C3 1079   1.012   3.399   0.005  0.2635  0.3489  0.2445
  108EC      O3 1080   1.053   3.333   4.412  0.1126 -0.1017  0.2248
  109EC      C1 1081   2.598   1.118   1.588 -0.4952 -0.1501  0.2494
  109EC      C2 1082   2.609   0.956   1.600 -0.4242 -0.0905  0.2261
  109EC      O1 1083   2.453   1.142   1.628  0.4586 -0.0264  0.2257
  109EC      H1 1084   2.601   1.148   1.483  0.5951  1.2900  0.6519
  109EC      H2 1085   2.663   1.181   1.649 -0.9730  0.9608 -0.3591
  109EC      O2 1086   2.487   0.920   1.677  0.8628 -0.3278  0.5264
  109EC      H3 1087   2.697   0.934   1.661 -0.3558  0.3826  0.3063
  109EC      H4 1088   2.604   0.899   1.508  3.6094 -0.6205  0.1899
  109EC      C3 1089   2.377   1.029   1.674 -0.0613  0.6366 -0.2378
  109EC      O3 1090   2.288   1.035   1.760 -0.3263  0.0104 -0.1874
  110EC      C1 1091   2.903   1.630   0.380 -0.0612  0.3125 -0.5318
  110EC      C2 1092   2.986   1.548   0.263 -0.9503  0.1555  0.5059
  110EC      O1 1093   2.945   1.559   0.508  0.3938 -0.0707  0.3281
  110EC      H1 1094   2.796   1.619   0.360 -1.0756  1.0650  3.5586
  110EC      H2 1095   2.940   1.732   0.382  2.8888 -0.6707 -0.2287
  110EC      O2 1096   3.066   1.446   0.339 -0.3057 -0.0110 -0.3366
  110EC      H3 1097   3.053   1.615   0.210 -1.6082  1.7664  1.6437
  110EC      H4 1098   2.933   1.483   0.193 -1.5442  1.2161 -0.0557
  110EC      C3 1099   3.051   1.450   0.487  0.5962  0.6700  0.3995
  110EC      O3 1100   3.122   1.394   0.570  0.6086 -0.1215 -0.1477
  111EC      C1 1101   2.072   4.460   2.482  0.3156 -0.2677  0.9874
  111EC      C2 1102   1.984   4.321   2.480 -0.0001 -0.1908  0.3123
  111EC      O1 1103   2.168   4.445   2.370  0.0840 -0.2028 -0.6701
  111EC      H1 1104   2.111   4.482   2.582  1.1696 -0.7583  0.7665
  111EC      H2 1105   2.009   0.048   2.454  0.4769  0.0690  1.6037
  111EC      O2 1106   2.049   4.242   2.366  0.1091 -0.2285  0.0274
  111EC      H3 1107   1.880   4.344   2.455 -0.1481 -1.5326 -0.4395
  111EC      H4 1108   1.989   4.265   2.574  2.1655 -1.0382 -0.2561
  111EC      C3 1109   2.154   4.318   2.296  0.1037 -0.5638 -0.6796
  111EC      O3 1110   2.228   4.273   2.211 -0.2554 -0.1757 -0.7700
  112EC      C1 1111   1.503   1.940   1.592 -0.0357 -0.4270  0.0550
  112EC      C2 1112   1.385   1.839   1.555 -0.0122  0.5915 -0.7904
  112EC      O1 1113   1.507   2.047   1.484  0.5175  0.2643 -0.3992
  112EC      H1 1114   1.601   1.892   1.587 -0.6764 -1.6567 -1.4041
  112EC      H2 1115   1.490   1.987   1.689 -2.3165 -1.0717  0.1194
  112EC      O2 1116   1.321   1.916   1.439  0.5261 -0.1240 -0.3404
  112EC      H3 1117   1.311   1.826   1.634 -0.3367 -0.2942 -1.2194
  112EC      H4 1118   1.423   1.740   1.528  1.6784  1.1558 -0.5482
  112EC      C3 1119   1.399   2.031   1.383  0.3422  0.3636 -0.0422
  112EC      O3 1120   1.390   2.084   1.269 -0.1181 -0.4055 -0.5588
  113EC      C1 1121   3.483   1.095   1.580  0.5411  0.2157  0.1159
  113EC      C2 1122   3.624   1.108   1.642 -0.3849  0.4936 -0.1442
  113EC      O1 1123   3.416   1.233   1.594  0.3077 -0.0120 -0.0156
  113EC      H1 1124   3.421   1.028   1.640  1.4369 -0.6899  0.0334
  113EC      H2 1125   3.495   1.055   1.480  3.2276 -1.1311  0.8875
  113EC      O2 1126   3.630   1.250   1.681 -0.3459 -0.1615 -0.1592
  113EC      H3 1127   3.694   1.089   1.561 -1.5773 -0.5274 -0.9590
  113EC      H4 1128   3.638   1.051   1.734 -3.4605  0.3001  0.3018
  113EC      C3 1129   3.509   1.333   1.643 -0.9239 -0.4085 -0.2568
  113EC      O3 1130   3.475   1.443   1.687 -0.2629 -0.1510 -0.0293
  114EC      C1 1131   3.771   3.212   1.550 -0.2808  0.4544 -0.5493
  114EC      C2 1132   3.807   3.081   1.641 -0.4067  0.4770  0.7186
  114EC      O1 1133   3.754   3.324   1.658 -0.1342 -0.6456  0.5545
  114EC      H1 1134   3.684   3.200   1.485 -0.8458 -1.7951  0.5200
  114EC      H2 1135   3.857   3.226   1.486 -1.5762  2.2840 -1.9911
  114EC      O2 1136   3.819   3.126   1.779  0.3782 -0.1503 -0.7720
  114EC      H3 1137   3.906   3.060   1.599 -0.3901  2.2033 -0.2121
  114EC      H4 1138   3.739   2.998   1.625  1.5206 -0.8035 -1.5470
  114EC      C3 1139   3.797   3.276   1.796 -1.0892 -0.5415  0.0952
  114EC      O3 1140   3.800   3.335   1.899  0.2217  0.0419 -0.0861
  115EC      C1 1141   0.035   4.425   0.317 -0.2069  0.0747 -0.7931
  115EC      C2 1142   0.085   0.018   0.199 -0.4759 -0.4380  0.2769
  115EC      O1 1143   0.118   4.294   0.300  0.8906  0.6528  0.0672
  115EC      H1 1144   4.424   4.426   0.296  0.1610  1.6939 -3.0010
  115EC      H2 1145   0.074   4.469   0.409  1.3266 -1.8284 -0.4664
  115EC      O2 1146   0.180   4.427   0.125  0.1020 -0.7200  0.3648
  115EC      H3 1147   0.136   0.101   0.248 -1.9775  0.0069  1.1446
  115EC      H4 1148   0.010   0.073   0.142  1.9417  2.9916  0.1296
  115EC      C3 1149   0.195   4.289   0.167  0.2963 -0.0306  0.5794
  115EC      O3 1150   0.298   4.224   0.153 -0.7051 -0.4148 -0.2903
  116EC      C1 1151   2.418   4.144   4.113 -0.1464  0.1024 -0.7811
  116EC      C2 1152   2.506   4.245   4.020 -0.1660  0.0755 -0.0250
  116EC      O1 1153   2.354   4.052   4.011  0.3462  0.6150 -0.2820
  116EC      H1 1154   2.355   4.199   4.183  3.4917  1.4802  1.7016
  116EC      H2 1155   2.485   4.093   4.183 -1.8612  0.4738  1.2255
  116EC      O2 1156   2.479   4.192   3.880  0.1580 -0.0813  0.5204
  116EC      H3 1157   2.612   4.235   4.042 -0.4390 -1.7416  0.5821
  116EC      H4 1158   2.487   4.351   4.036  0.8366  0.0708  1.3248
  116EC      C3 1159   2.378   4.083   3.873 -0.1244  0.4921 -0.0985
  116EC      O3 1160   2.335   4.036   3.768 -0.3105  0.4139 -0.3400
  117EC      C1 1161   2.029   2.459   3.961  0.2407  0.1449 -0.7809
  117EC      C2 1162   2.023   2.307   4.023 -0.5231 -0.1627  0.0431
  117EC      O1 1163   2.131   2.526   4.040 -0.4375  0.0564 -0.6084
  117EC      H1 1164   1.929   2.498   3.982  0.2323  0.2741 -1.0714
  117EC      H2 1165   2.038   2.457   3.853 -0.8242 -1.4460 -0.8830
  117EC      O2 1166   2.138   2.313   4.127  0.8766  0.1664 -0.2200
  117EC      H3 1167   2.044   2.226   3.953 -1.0922  1.4898 -2.1760
  117EC      H4 1168   1.930   2.299   4.079 -0.8399  1.8582 -0.1118
  117EC      C3 1169   2.204   2.446   4.144 -0.6305 -0.1397 -0.4305
  117EC      O3 1170   2.304   2.475   4.213 -0.1085 -0.5445 -0.1952
  118EC      C1 1171   2.874   4.080   1.441 -0.6147  0.1822 -0.0254
  118EC      C2 1172   2.719   4.027   1.445 -0.2024 -0.4476 -0.6294
  118EC      O1 1173   2.866   4.202   1.348 -0.0097 -0.3450  0.2578
  118EC      H1 1174   2.937   4.001   1.402  1.5374  1.4766  0.6815
  118EC      H2 1175   2.903   4.105   1.543 -0.1082 -1.9465  0.4005
  118EC      O2 1176   2.649   4.116   1.345 -0.0456 -0.2386 -0.5133
  118EC      H3 1177   2.668   4.038   1.540  0.8357 -1.7621  0.1250
  118EC      H4 1178   2.717   3.922   1.416  2.5344 -0.7405 -0.0121
  118EC      C3 1179   2.738   4.221   1.278  0.0386  0.3647 -0.6984
  118EC      O3 1180   2.705   4.322   1.220 -0.5933  0.2134  0.3438
  119EC      C1 1181   1.428   0.522   3.609 -0.3071  0.2129  0.0750
  119EC      C2 1182   1.514   0.395   3.540  0.3839 -0.5382 -0.6755
  119EC      O1 1183   1.346   0.452   3.711  0.0317 -0.2722  0.1505
  119EC      H1 1184   1.375   0.568   3.526 -2.1470 -0.5533  0.7770
  119EC      H2 1185   1.494   0.596   3.653  1.0136 -1.6057  1.3264
  119EC      O2 1186   1.474   0.269   3.626  0.5188 -0.9557  0.0429
  119EC      H3 1187   1.621   0.416   3.544  0.1576  0.7829 -1.0723
  119EC      H4 1188   1.490   0.392   3.434 -1.1835 -0.6875 -0.3499
  119EC      C3 1189   1.376   0.307   3.735  0.4264 -0.5409  0.2731
  119EC      O3 1190   1.295   0.230   3.788 -0.3242  0.3460  0.4894
  120EC      C1 1191   2.528   1.754   2.409 -0.0625  0.4635 -0.1971
  120EC      C2 1192   2.502   1.687   2.547 -0.0881  0.4122 -0.4167
  120EC      O1 1193   2.659   1.698   2.360 -0.1053 -0.2899  0.1599
  120EC      H1 1194   2.547   1.860   2.422 -2.8513  0.9320  0.8495
  120EC      H2 1195   2.448   1.730   2.338 -0.8721  2.6296 -0.0913
  120EC      O2 1196   2.622   1.595   2.560 -0.5405 -0.0786  0.9037
  120EC      H3 1197   2.418   1.620   2.564  0.0217  0.3167 -0.2487
  120EC      H4 1198   2.490   1.760   2.627  0.6662  1.9608 -1.6584
  120EC      C3 1199   2.713   1.590   2.444 -1.0118  0.7811 -0.1200
  120EC      O3 1200   2.813   1.528   2.419 -0.4185 -0.3623 -0.6042
  121EC      C1 1201   1.108   1.085   3.726  0.1592 -0.5882  0.1870
  121EC      C2 1202   1.273   1.073   3.697  0.5255 -0.5650  0.1496
  121EC      O1 1203   1.070   0.943   3.729 -0.4658  0.4559 -0.1189
  121EC      H1 1204   1.067   1.147   3.646  3.0171 -0.5384 -1.3692
  121EC      H2 1205   1.085   1.134   3.820  1.4295 -2.7772  1.7461
  121EC      O2 1206   1.302   0.930   3.701  0.8438  0.7453 -0.3925
  121EC      H3 1207   1.322   1.128   3.777 -2.5310 -0.8380  2.3696
  121EC      H4 1208   1.305   1.112   3.600  0.8086  0.1737  0.5375
  121EC      C3 1209   1.184   0.842   3.717 -0.2215 -0.9786 -0.2559
  121EC      O3 1210   1.180   0.724   3.736 -0.6029  0.1585 -0.0307
  122EC      C1 1211   0.172   4.456   4.192  0.0887 -0.3358 -0.0883
  122EC      C2 1212   0.271   4.478   4.316  0.3652  0.1328 -0.7573
  122EC      O1 1213   0.184   0.097   4.129 -0.4835  0.1856  0.4016
  122EC      H1 1214   0.072   4.435   4.231  0.1882 -1.6326 -0.4881
  122EC      H2 1215   0.208   4.376   4.126 -2.0848 -1.3594 -0.1379
  122EC      O2 1216   0.349   0.113   4.293  0.1743 -0.1972  0.0425
  122EC      H3 1217   0.335   4.390   4.328 -0.8524 -0.6611  0.0391
  122EC      H4 1218   0.200   4.489   4.397 -0.4824 -0.1554 -1.4465
  122EC      C3 1219   0.293   0.193   4.184  0.8077  0.6253 -0.0720
  122EC      O3 1220   0.338   0.293   4.131  0.2314 -0.3252  0.0777
  123EC      C1 1221   3.834   1.138   2.538 -0.2179  0.2326  0.0608
  123EC      C2 1222   3.885   1.283   2.581 -0.5327 -0.4244 -0.5028
  123EC      O1 1223   3.761   1.083   2.661 -0.6678  0.3803 -0.3022
  123EC      H1 1224   3.925   1.081   2.517 -0.3551  0.9086 -2.8266
  123EC      H2 1225   3.771   1.140   2.450  1.1379  0.8205 -0.9343
  123EC      O2 1226   3.834   1.299   2.725  0.2341 -0.0382 -0.2648
  123EC      H3 1227   3.844   1.355   2.510  1.3432  0.9028 -0.3200
  123EC      H4 1228   3.992   1.300   2.566  0.0513 -2.1321  1.3136
  123EC      C3 1229   3.771   1.178   2.784 -0.2698  0.4862  0.7208
  123EC      O3 1230   3.698   1.173   2.884 -0.3685 -0.6929  0.1785
  124EC      C1 1231   0.516   3.667   2.163  0.2390 -0.4579 -0.0957
  124EC      C2 1232   0.611   3.761   2.255  0.2479  0.5238  0.4925
  124EC      O1 1233   0.444   3.582   2.263 -0.5703 -0.5427 -0.4520
  124EC      H1 1234   0.573   3.587   2.116 -1.3324 -1.4672 -0.3714
  124EC      H2 1235   0.451   3.727   2.098 -0.0625 -0.3908  0.2662
  124EC      O2 1236   0.600   3.704   2.388  0.5466 -0.6341  0.1711
  124EC      H3 1237   0.570   3.861   2.264 -1.7654 -0.3435  1.5843
  124EC      H4 1238   0.704   3.775   2.200 -1.2687  2.1619 -1.8611
  124EC      C3 1239   0.498   3.586   2.401 -0.0948  0.5933  0.5920
  124EC      O3 1240   0.432   3.547   2.498 -0.2072  0.1311 -0.6093
  125EC      C1 1241   3.820   1.607   2.008 -0.2584  0.4782 -0.6297
  125EC      C2 1242   3.677   1.682   1.976  0.3129 -0.3076 -0.0745
  125EC      O1 1243   3.919   1.693   1.938 -0.6194 -0.0369  0.4612
  125EC      H1 1244   3.813   1.506   1.968 -2.0745 -0.4083  1.7611
  125EC      H2 1245   3.859   1.607   2.109 -0.6575 -2.1944 -0.4123
  125EC      O2 1246   3.728   1.808   1.911  0.2182 -0.4302 -0.3702
  125EC      H3 1247   3.624   1.705   2.068  2.3501  0.1119  1.0651
  125EC      H4 1248   3.611   1.629   1.907 -2.0565  2.4337 -0.0630
  125EC      C3 1249   3.862   1.825   1.890 -0.6154  0.1688  0.7578
  125EC      O3 1250   3.913   1.887   1.797  0.3861 -0.2308  0.1468
  126EC      C1 1251   1.106   0.011   3.930  1.2947  0.3956  0.2316
  126EC      C2 1252   1.042   4.426   3.804  0.1230  0.6445 -0.2666
  126EC      O1 1253   1.057   4.432   4.055 -0.2967 -0.2805  0.6949
  126EC      H1 1254   1.066   0.112   3.938  0.7179  0.1512  0.5058
  126EC      H2 1255   1.214   0.010   3.926  1.3278 -1.3092  0.4387
  126EC      O2 1256   0.991   4.303   3.880 -0.0024 -0.0225  0.5448
  126EC      H3 1257   1.115   4.417   3.724  0.0257  4.6323 -1.0040
  126EC      H4 1258   0.958   4.476   3.755  2.0541  2.9622 -1.4098
  126EC      C3 1259   0.971   4.321   4.030 -0.3413  1.0286 -0.3882
  126EC      O3 1260   0.952   4.234   4.113 -0.2707  0.2328 -0.3224
  127EC      C1 1261   2.310   3.474   3.431  0.5623 -0.5652  0.6194
  127EC      C2 1262   2.176   3.529   3.354  0.0649  0.2620 -0.0391
  127EC      O1 1263   2.316   3.570   3.548  1.1382  0.1965 -0.0668
  127EC      H1 1264   2.393   3.483   3.362  0.7207 -2.0711  0.5943
  127EC      H2 1265   2.294   3.376   3.477 -0.3937 -0.8591 -0.2918
  127EC      O2 1266   2.146   3.662   3.434  0.3627  0.6432  0.5892
  127EC      H3 1267   2.095   3.460   3.376 -1.3032  1.2448 -1.7912
  127EC      H4 1268   2.193   3.539   3.247  3.6102 -1.1232  0.2347
  127EC      C3 1269   2.213   3.681   3.553 -0.0395  0.1505  0.2834
  127EC      O3 1270   2.222   3.791   3.616 -0.4181 -0.4087 -0.2701
  128EC      C1 1271   3.592   0.058   0.673 -0.6481  0.8084  0.2795
  128EC      C2 1272   3.635   4.409   0.742 -0.9606 -1.0851 -0.0711
  128EC      O1 1273   3.638   0.039   0.530  0.4504  0.5375  0.8459
  128EC      H1 1274   3.640   0.139   0.728 -0.0601  1.4540 -1.1590
  128EC      H2 1275   3.484   0.072   0.687 -0.6877  0.1234  0.6878
  128EC      O2 1276   3.701   4.338   0.626  0.0814 -0.1314 -0.0264
  128EC      H3 1277   3.554   4.353   0.788  0.2284  0.2693  4.1431
  128EC      H4 1278   3.710   4.426   0.820 -2.4666  2.7177  0.7851
  128EC      C3 1279   3.683   4.398   0.496  0.3415 -0.4768 -0.3620
  128EC      O3 1280   3.752   4.373   0.397  0.5675 -0.4512  0.1068
  129EC      C1 1281   3.527   2.895   2.459 -1.5048  0.7539 -0.8858
  129EC      C2 1282   3.664   2.869   2.544  0.5541  0.1470  0.3788
  129EC      O1 1283   3.450   2.999   2.536 -0.4383 -0.4274 -0.3590
  129EC      H1 1284   3.474   2.801   2.472  0.0883  0.1057  1.5945
  129EC      H2 1285   3.549   2.915   2.354  1.0283  3.1354 -0.0061
  129EC      O2 1286   3.645   2.964   2.662 -0.2291  0.5156 -0.0925
  129EC      H3 1287   3.750   2.909   2.490  1.0694 -1.2652  0.1287
  129EC      H4 1288   3.685   2.765   2.570  1.2589 -0.0810 -1.0092
  129EC      C3 1289   3.527   3.039   2.666  0.5755 -0.1921 -0.7572
  129EC      O3 1290   3.491   3.107   2.760 -0.4834  0.4395 -0.7249
  130EC      C1 1291   2.714   0.432   2.118 -0.9339  0.5329  0.0451
  130EC      C2 1292   2.737   0.465   2.271  0.0065  0.6131  0.3807
  130EC      O1 1293   2.854   0.418   2.059  0.5609 -0.3337  0.1045
  130EC      H1 1294   2.650   0.508   2.071 -1.4279  1.2592  1.8130
  130EC      H2 1295   2.657   0.339   2.116 -0.5623  0.3109 -0.7821
  130EC      O2 1296   2.886   0.440   2.293 -0.4370  0.3691  0.6372
  130EC      H3 1297   2.666   0.411   2.334 -0.3531  0.3330 -0.2495
  130EC      H4 1298   2.720   0.569   2.298  2.0135  0.4986  2.3821
  130EC      C3 1299   2.963   0.415   2.169  0.5020 -0.2681  0.2142
  130EC      O3 1300   3.081   0.418   2.150  0.5701 -0.0349 -0.5345
  131EC      C1 1301   1.490   4.463   1.055 -0.0993  0.7658  0.0105
  131EC      C2 1302   1.444   0.035   1.205  0.0737 -0.3384  0.1583
  131EC      O1 1303   1.582   4.357   1.104 -0.3663  0.0280 -0.0332
  131EC      H1 1304   1.553   0.031   0.993  0.2499  1.0359  0.6391
  131EC      H2 1305   1.407   4.438   0.989 -0.1946 -0.3936  0.5549
  131EC      O2 1306   1.538   4.465   1.299 -0.3435 -0.0394  0.5554
  131EC      H3 1307   1.347   4.483   1.218 -0.9233  1.7418  0.9185
  131EC      H4 1308   1.422   0.142   1.203  0.0067 -0.3617 -0.6033
  131EC      C3 1309   1.626   4.357   1.245  0.4818  0.2772  0.4172
  131EC      O3 1310   1.706   4.288   1.309 -0.0431  0.0307  0.6266
  132EC      C1 1311   0.777   2.520   3.060 -1.0140  0.0872  0.0905
  132EC      C2 1312   0.888   2.639   3.027 -0.9562  0.0306 -0.0528
  132EC      O1 1313   0.847   2.444   3.176 -0.3981  0.2550  0.4577
  132EC      H1 1314   0.751   2.464   2.970 -0.1470  0.3935 -0.3716
  132EC      H2 1315   0.682   2.555   3.100  0.1442  3.0080  0.5474
  132EC      O2 1316   0.996   2.618   3.135 -0.3678  0.0541  0.0659
  132EC      H3 1317   0.830   2.731   3.014 -1.7019 -0.6506 -1.7512
  132EC      H4 1318   0.940   2.631   2.932  1.9081  2.8108  1.0937
  132EC      C3 1319   0.976   2.492   3.218 -0.5323 -0.5463  0.3187
  132EC      O3 1320   1.056   2.445   3.299 -0.4527  0.1813 -0.2685
  133EC      C1 1321   2.899   0.462   4.329  0.3530  0.3357  0.0583
  133EC      C2 1322   2.802   0.334   4.296 -0.0058  0.6452  0.2861
  133EC      O1 1323   2.886   0.545   4.210 -0.5256 -0.0635  0.3920
  133EC      H1 1324   2.996   0.413   4.324 -0.3803 -1.0999 -0.9212
  133EC      H2 1325   2.881   0.506   4.427 -0.3253 -0.1475  0.1614
  133EC      O2 1326   2.746   0.365   4.162  0.3925  0.8290  0.5742
  133EC      H3 1327   2.723   0.328   4.370 -1.2406  1.6086 -0.8873
  133EC      H4 1328   2.858   0.241   4.282 -0.7046  0.1242  0.8502
  133EC      C3 1329   2.800   0.485   4.098 -0.0916  0.1378  0.3508
  133EC      O3 1330   2.763   0.543   3.994 -0.2374 -0.0465 -0.4740
  134EC      C1 1331   2.815   4.280   2.163  0.1155  0.6780  0.0992
  134EC      C2 1332   2.969   4.314   2.169 -0.7524 -0.5941  0.3951
  134EC      O1 1333   2.755   4.376   2.267 -1.2763 -0.1968 -0.2923
  134EC      H1 1334   2.803   4.174   2.183  0.4096  0.3367 -1.4321
  134EC      H2 1335   2.773   4.302   2.065 -1.0143  1.1989  0.6748
  134EC      O2 1336   2.986   4.421   2.269 -0.6393  0.1539  0.0796
  134EC      H3 1337   3.002   4.341   2.069 -1.6111  0.9483  0.4795
  134EC      H4 1338   3.048   4.249   2.204  1.8462  2.3029  0.3609
  134EC      C3 1339   2.858   4.464   2.342  0.3372 -0.0281 -0.5243
  134EC      O3 1340   2.847   0.022   2.454  0.0903 -0.2110  0.8380
  135EC      C1 1341   0.169   0.555   0.318  0.3303  0.0353 -0.3335
  135EC      C2 1342   0.217   0.450   0.427  0.3971 -0.1594  0.6030
  135EC      O1 1343   0.049   0.489   0.249 -0.2629  0.2127 -0.4051
  135EC      H1 1344   0.249   0.565   0.244  1.4786  1.7334  1.0316
  135EC      H2 1345   0.145   0.655   0.353  1.3298  0.3487 -0.4991
  135EC      O2 1346   0.113   0.342   0.414  0.6977 -0.5577  0.1863
  135EC      H3 1347   0.228   0.471   0.533  0.0133  0.4757  0.5191
  135EC      H4 1348   0.310   0.415   0.382 -0.8001 -1.3009 -1.1273
  135EC      C3 1349   4.490   0.370   0.319  0.0549  0.6638  0.0487
  135EC      O3 1350   4.420   0.281   0.269 -0.2888  0.0993 -0.0114
  136EC      C1 1351   0.059   0.012   2.533 -0.5090  0.0742  0.6032
  136EC      C2 1352   4.406   0.060   2.495  0.7400  0.0776 -0.0321
  136EC      O1 1353   0.044   4.424   2.658 -0.1335  0.9243  0.1992
  136EC      H1 1354   0.114   0.106   2.544  1.1806 -0.8250  0.1650
  136EC      H2 1355   0.113   4.442   2.465  2.8733  1.2572  1.9569
  136EC      O2 1356   4.325   4.467   2.582 -0.2435  0.1556  0.1566
  136EC      H3 1357   4.379   0.040   2.391  1.6259  0.5184 -0.3530
  136EC      H4 1358   4.403   0.164   2.526  0.9570 -0.2003  0.9261
  136EC      C3 1359   4.395   4.408   2.702 -0.1080 -0.4659 -0.1505
  136EC      O3 1360   4.354   4.320   2.767 -0.2001  0.0006  0.3441
  137EC      C1 1361   3.499   3.720   2.670 -0.0826 -0.3133  0.1317
  137EC      C2 1362   3.503   3.884   2.689 -0.2368  0.0557 -0.6041
  137EC      O1 1363   3.646   3.698   2.629  0.2469  0.2184  0.1345
  137EC      H1 1364   3.424   3.686   2.598 -0.6670  5.2350 -2.3767
  137EC      H2 1365   3.480   3.670   2.765  1.0337  0.7057  0.9244
  137EC      O2 1366   3.650   3.915   2.691 -0.2216 -0.8297  0.1000
  137EC      H3 1367   3.471   3.915   2.788  3.1832 -0.6133  0.8601
  137EC      H4 1368   3.454   3.938   2.608 -1.7522  0.6208  0.6399
  137EC      C3 1369   3.740   3.799   2.679 -0.1878  0.2769  0.0845
  137EC      O3 1370   3.855   3.815   2.630  0.2350  0.0050 -0.0291
  138EC      C1 1371   4.012   0.069   0.327  0.1539 -0.7669 -0.0727
  138EC      C2 1372   4.087   4.437   0.383 -0.5306 -0.0077  0.0875
  138EC      O1 1373   4.089   0.186   0.399 -0.7891 -0.5841  0.9815
  138EC      H1 1374   3.914   0.084   0.371 -0.0181  1.5856 -1.1066
  138EC      H2 1375   4.002   0.077   0.219  1.8428 -2.1150 -0.3754
  138EC      O2 1376   4.195   4.491   0.477  0.0316  0.4786 -0.6692
  138EC      H3 1377   4.115   4.370   0.301  0.8171 -0.4911  0.9101
  138EC      H4 1378   4.016   4.382   0.445 -1.3753  1.1722  0.1927
  138EC      C3 1379   4.208   0.148   0.476  0.0725 -0.1553 -0.2499
  138EC      O3 1380   4.238   0.213   0.581 -0.0624  0.7154  0.0162
  139EC      C1 1381   0.811   0.361   0.978 -0.8100 -0.6452  0.3154
  139EC      C2 1382   0.653   0.356   1.018 -0.8320  0.3445 -0.0519
  139EC      O1 1383   0.867   0.237   1.040  0.3034  0.0891  0.1122
  139EC      H1 1384   0.864   0.450   1.014  0.7322 -0.9206 -1.1862
  139EC      H2 1385   0.833   0.363   0.871  1.6891 -0.7705  0.7725
  139EC      O2 1386   0.635   0.210   1.068 -0.2580 -0.6813 -0.0785
  139EC      H3 1387   0.594   0.355   0.927 -1.2114 -1.8412  0.1526
  139EC      H4 1388   0.615   0.429   1.089 -1.6930  0.8831 -1.0524
  139EC      C3 1389   0.761   0.140   1.083  0.5018 -0.8175  0.2717
  139EC      O3 1390   0.772   0.035   1.142 -0.2714  0.3749 -0.3200
  140EC      C1 1391   0.884   3.743   2.856 -0.8654 -0.5874 -0.2795
  140EC      C2 1392   0.813   3.891   2.862  0.1895 -0.3317 -0.6824
  140EC      O1 1393   0.838   3.682   2.986 -0.1001  0.0980 -0.0019
  140EC      H1 1394   0.987   3.746   2.821 -1.1947  2.4528 -1.3109
  140EC      H2 1395   0.842   3.687   2.773 -0.6526  0.8512 -1.4090
  140EC      O2 1396   0.736   3.889   2.997 -0.0573 -0.0574  0.0809
  140EC      H3 1397   0.752   3.918   2.776 -2.6838 -1.5805  0.8134
  140EC      H4 1398   0.896   3.958   2.885  0.1732 -0.8192  0.9254
  140EC      C3 1399   0.757   3.764   3.072 -1.0321 -0.0867 -0.5737
  140EC      O3 1400   0.693   3.725   3.171 -0.2344  0.4560 -0.0985
  141EC      C1 1401   3.719   3.621   1.543  0.0538 -0.3809 -0.5959
  141EC      C2 1402   3.605   3.531   1.466  0.8302 -0.2982 -0.6303
  141EC      O1 1403   3.657   3.661   1.673  0.8946 -0.3300 -0.2425
  141EC      H1 1404   3.740   3.714   1.491  1.4402 -0.1901  0.2522
  141EC      H2 1405   3.808   3.557   1.544 -1.0924 -2.3134 -3.9961
  141EC      O2 1406   3.492   3.531   1.568 -0.1426  0.2515  0.3311
  141EC      H3 1407   3.650   3.432   1.454  1.2166 -0.1940 -0.0725
  141EC      H4 1408   3.579   3.581   1.372 -2.7996  0.2067  0.4979
  141EC      C3 1409   3.523   3.597   1.703  0.1886  0.4026  0.8837
  141EC      O3 1410   3.435   3.639   1.776  0.3929  0.2045 -0.1549
  142EC      C1 1411   0.371   0.401   2.816 -0.2985 -0.1791  0.0482
  142EC      C2 1412   0.382   0.386   2.657  0.2197 -0.2612  0.3548
  142EC      O1 1413   0.383   0.545   2.829 -0.2364 -0.7109  0.5936
  142EC      H1 1414   0.453   0.360   2.873 -0.0630  1.4192  0.9056
  142EC      H2 1415   0.275   0.377   2.862 -0.8210  1.1842 -0.2900
  142EC      O2 1416   0.392   0.523   2.595  0.1529 -0.6784 -0.5872
  142EC      H3 1417   0.292   0.341   2.615  0.6900  0.2870 -1.3258
  142EC      H4 1418   0.472   0.334   2.623 -1.3790 -2.4594 -0.7877
  142EC      C3 1419   0.373   0.633   2.702 -0.6568 -0.0056  0.6986
  142EC      O3 1420   0.411   0.754   2.696  0.3023 -0.2867  0.3467
  143EC      C1 1421   2.428   1.574   0.039  0.5232  0.5423 -0.2876
  143EC      C2 1422   2.549   1.552   0.148 -0.2712  0.2075 -0.0912
  143EC      O1 1423   2.496   1.553   4.403  0.2547 -0.0743  0.4844
  143EC      H1 1424   2.386   1.674   0.041  0.6986  0.6213  2.0555
  143EC      H2 1425   2.358   1.493   0.058  0.1174  1.5652  3.2686
  143EC      O2 1426   2.669   1.515   0.064  0.3115 -0.1261 -0.5196
  143EC      H3 1427   2.521   1.481   0.225  1.7385 -1.7863 -1.0936
  143EC      H4 1428   2.568   1.646   0.199 -0.8428 -0.8894  2.2871
  143EC      C3 1429   2.655   1.543   4.417  0.6491  0.5846  1.0915
  143EC      O3 1430   2.742   1.492   4.338  0.5973 -0.3538 -0.0665
  144EC      C1 1431   3.097   3.697   0.501  0.2221 -0.4926  0.2284
  144EC      C2 1432   3.167   3.661   0.639  0.3226 -0.0486  0.3224
  144EC      O1 1433   3.182   3.626   0.399 -0.2611  0.6077  0.0930
  144EC      H1 1434   3.099   3.805   0.481  2.1928 -0.6997 -0.9956
  144EC      H2 1435   2.996   3.662   0.484 -0.0958  0.1672  0.7242
  144EC      O2 1436   3.301   3.597   0.598  0.3409  0.0866  0.6319
  144EC      H3 1437   3.103   3.598   0.700  2.2371 -3.4281 -0.9323
  144EC      H4 1438   3.192   3.758   0.683 -0.1453 -0.3069  1.1849
  144EC      C3 1439   3.314   3.577   0.451  0.3758  0.0993  0.0947
  144EC      O3 1440   3.394   3.509   0.393 -0.0102  0.2380  0.5474
  145EC      C1 1441   3.992   2.989   2.310  0.3653 -0.3052 -0.1892
  145EC      C2 1442   4.051   3.052   2.174 -0.4757  0.6081 -0.8123
  145EC      O1 1443   3.852   3.045   2.311  0.4063 -0.3690 -0.3291
  145EC      H1 1444   4.037   3.034   2.398  0.3900  3.1244 -1.7982
  145EC      H2 1445   3.978   2.883   2.289 -0.6887 -0.1220 -0.4671
  145EC      O2 1446   3.940   3.141   2.121 -0.5034 -0.0031 -0.1896
  145EC      H3 1447   4.066   2.971   2.103 -1.9085  1.1310 -1.7610
  145EC      H4 1448   4.147   3.099   2.195  0.0232 -0.4575 -0.5954
  145EC      C3 1449   3.814   3.134   2.198 -0.5544  0.4555  0.4316
  145EC      O3 1450   3.718   3.208   2.183  0.9262 -0.1406 -0.2766
  146EC      C1 1451   4.231   1.567   2.926 -0.6339 -0.2742 -0.2413
  146EC      C2 1452   4.389   1.541   2.945 -0.0828  0.2833  0.4305
  146EC      O1 1453   4.189   1.472   2.816 -0.0412 -0.1220 -0.4590
  146EC      H1 1454   4.195   1.667   2.899 -2.0466 -0.5691  0.4895
  146EC      H2 1455   4.167   1.544   3.011  0.6943 -0.5742  0.7101
  146EC      O2 1456   4.418   1.428   2.839 -0.3484 -1.0787  0.4282
  146EC      H3 1457   4.409   1.509   3.047 -0.0192  1.3300  0.7589
  146EC      H4 1458   4.448   1.633   2.937  0.2215  0.3240  2.5878
  146EC      C3 1459   4.293   1.382   2.769 -0.0263  0.8426 -0.1735
  146EC      O3 1460   4.299   1.328   2.658  0.2403  0.2656  0.1278
  147EC      C1 1461   0.775   2.814   4.226  0.2175  0.1650  0.0453
  147EC      C2 1462   0.628   2.780   4.292  0.1848 -0.8104  0.3471
  147EC      O1 1463   0.826   2.918   4.324 -0.3853  0.7098 -0.2053
  147EC      H1 1464   0.771   2.845   4.121  0.5111  1.6080  0.4383
  147EC      H2 1465   0.839   2.726   4.239 -0.3323 -0.4941 -1.4603
  147EC      O2 1466   0.604   2.891   4.397 -0.4285 -0.0860  0.2205
  147EC      H3 1467   0.622   2.685   4.344 -2.0696 -0.4697  0.8415
  147EC      H4 1468   0.549   2.786   4.217  1.1678 -2.9542 -0.9309
  147EC      C3 1469   0.729   2.964   4.432  0.0808  0.3191  0.0042
  147EC      O3 1470   0.760   3.001   0.051  0.1153  0.0096  0.0849
  148EC      C1 1471   1.442   3.277   4.447 -0.1671 -0.0367 -0.3711
  148EC      C2 1472   1.390   3.320   4.300 -0.2046  0.6556  0.3832
  148EC      O1 1473   1.527   3.393   4.486  0.4343 -0.4269  0.3795
  148EC      H1 1474   1.516   3.197   4.451 -0.2625 -0.0967  0.1749
  148EC      H2 1475   1.362   3.269   0.024  1.8379 -0.1412  1.9251
  148EC      O2 1476   1.438   3.459   4.290  0.1862 -0.7185  0.1176
  148EC      H3 1477   1.282   3.305   4.294 -0.2794  1.2404  0.1548
  148EC      H4 1478   1.435   3.265   4.218  1.5646  1.2017  0.9415
  148EC      C3 1479   1.517   3.517   4.402 -0.5561  0.0023 -0.2631
  148EC      O3 1480   1.614   3.598   4.391 -0.0065 -0.1866  0.1245
  149EC      C1 1481   2.793   0.530   3.172  0.6613 -0.4578  0.2208
  149EC      C2 1482   2.807   0.508   3.329  0.1356  0.1143  0.6438
  149EC      O1 1483   2.654   0.584   3.159 -0.5522 -0.6426  0.3228
  149EC      H1 1484   2.796   0.440   3.111 -3.9850  0.2247 -1.3677
  149EC      H2 1485   2.857   0.604   3.124 -1.5369  0.1868 -1.8986
  149EC      O2 1486   2.671   0.537   3.389 -0.5627  0.2964 -0.2088
  149EC      H3 1487   2.885   0.580   3.352  2.5043 -1.8595 -0.7125
  149EC      H4 1488   2.832   0.407   3.362 -1.4388 -0.5456 -0.0656
  149EC      C3 1489   2.568   0.594   3.284  0.1647 -0.1249  0.2646
  149EC      O3 1490   2.442   0.578   3.289  0.4009 -0.0414 -0.5696
  150EMC     C1 1491   1.037   0.607   1.435  0.0876 -0.0897  0.8669
  150EMC     C2 1492   0.794   0.250   1.510 -0.5534 -0.2509 -0.3281
  150EMC     C3 1493   0.862   0.449   1.396  0.7794  0.0949  0.2119
  150EMC     O1 1494   0.953   0.533   1.348  0.2224  0.1918  0.1324
  150EMC     O2 1495   0.894   0.339   1.463  0.0971  0.3283 -0.0778
  150EMC     O3 1496   0.743   0.455   1.359 -0.0204  0.0224 -0.1442
  150EMC     H1 1497   0.993   0.685   1.498 -0.5712  0.6440 -0.4621
  150EMC     H2 1498   1.111   0.647   1.365 -1.7334  0.8880 -0.5685
  150EMC     H3 1499   1.111   0.543   1.483  1.4548  1.2305  0.5960
  150EMC     C4 1500   0.853   0.124   1.568 -0.5108  1.0973 -0.2554
  150EMC     H4 1501   0.734   0.218   1.426  0.0360  2.3246 -1.8305
  150EMC     H5 1502   0.732   0.290   1.591 -0.3582 -1.4887  0.4724
  150EMC     H6 1503   0.943   0.137   1.627  0.3312 -1.8861 -0.7601
  150EMC     H7 1504   0.889   0.060   1.488  0.8690  1.2055  0.2500
  150EMC     H8 1505   0.786   0.073   1.637 -0.6852 -0.3171 -1.4324
  151EMC     C1 1506   3.019   1.881   0.918  0.0255  0.1028  0.3694
  151EMC     C2 1507   3.384   2.090   1.020  0.3513 -0.1137  0.3063
  151EMC     C3 1508   3.159   2.014   1.056 -0.0195 -0.4009 -0.5945
  151EMC     O1 1509   3.084   2.009   0.939 -0.0734 -0.4261  0.7465
  151EMC     O2 1510   3.244   2.093   0.992  0.3190  0.0501 -0.0783
  151EMC     O3 1511   3.180   1.918   1.138  0.3927 -0.5349  0.0851
  151EMC     H1 1512   3.096   1.804   0.927 -0.5374 -0.9422 -2.4992
  151EMC     H2 1513   3.006   1.873   0.810 -1.4093 -0.6711  0.5746
  151EMC     H3 1514   2.926   1.856   0.970 -1.2463 -0.8013 -2.1894
  151EMC     C4 1515   3.448   2.203   0.933  0.0054  0.5623  0.2489
  151EMC     H4 1516   3.432   1.995   0.994  1.9076  0.8631 -0.5404
  151EMC     H5 1517   3.390   2.098   1.128 -1.8366  0.3610  0.4469
  151EMC     H6 1518   3.393   2.297   0.936  0.7962  1.0438 -0.3075
  151EMC     H7 1519   3.442   2.185   0.826 -0.2080 -0.2788  0.3867
  151EMC     H8 1520   3.552   2.214   0.961  0.3868 -1.7339 -0.0637
  152EMC     C1 1521   2.134   0.604   1.195 -0.1504  0.0545  0.0873
  152EMC     C2 1522   2.464   0.847   1.237  0.4812  0.2722  0.8787
  152EMC     C3 1523   2.369   0.624   1.263 -0.6698 -0.3262  0.2504
  152EMC     O1 1524   2.278   0.615   1.167  1.0699  0.2432  0.6296
  152EMC     O2 1525   2.431   0.719   1.184 -0.2720  0.1397 -0.5249
  152EMC     O3 1526   2.346   0.644   1.383  0.2165 -0.2093 -0.3807
  152EMC     H1 1527   2.101   0.701   1.234  2.4083  0.5368  1.2717
  152EMC     H2 1528   2.113   0.525   1.267  0.5736  1.2545  1.7009
  152EMC     H3 1529   2.081   0.585   1.103  0.2192 -0.0171 -0.1145
  152EMC     C4 1530   2.606   0.875   1.210  0.4928  0.4347 -0.1261
  152EMC     H4 1531   2.451   0.852   1.346  5.2160  1.7190  1.6208
  152EMC     H5 1532   2.398   0.920   1.192  0.9689  3.0152  4.1812
  152EMC     H6 1533   2.661   0.807   1.276  1.3161  1.4328  0.2383
  152EMC     H7 1534   2.620   0.982   1.221 -1.8781  0.9505 -1.3862
  152EMC     H8 1535   2.636   0.849   1.109 -0.6138 -1.2171 -0.0650
  153EMC     C1 1536   0.954   3.859   1.284 -0.4673  0.2285  0.0889
  153EMC     C2 1537   0.673   3.931   1.568  0.0210  0.1769 -0.0458
  153EMC     C3 1538   0.722   3.898   1.333 -0.6879 -0.1844  0.0904
  153EMC     O1 1539   0.815   3.819   1.282  0.1555 -0.4840  0.3982
  153EMC     O2 1540   0.764   3.909   1.460 -0.3818  0.0811 -0.7912
  153EMC     O3 1541   0.603   3.895   1.299  0.1752 -0.1634  0.1382
  153EMC     H1 1542   0.997   3.815   1.194  0.5646 -0.0087  0.6752
  153EMC     H2 1543   1.004   3.822   1.374 -0.4377  0.3762  0.1340
  153EMC     H3 1544   0.963   3.968   1.292 -0.3873  0.2786 -0.6326
  153EMC     C4 1545   0.733   3.839   1.676  0.5266 -0.3057  0.3457
  153EMC     H4 1546   0.572   3.910   1.533  0.2067 -2.2170  0.6872
  153EMC     H5 1547   0.687   4.036   1.591  0.2157  0.2048 -0.2842
  153EMC     H6 1548   0.803   3.904   1.730  1.9503 -2.4598  1.2403
  153EMC     H7 1549   0.804   3.767   1.635  1.2117  0.4738  0.1312
  153EMC     H8 1550   0.667   3.795   1.751 -0.9778 -0.8341 -1.2300
  154EMC     C1 1551   2.363   3.031   2.344 -0.9905 -0.5468 -0.2036
  154EMC     C2 1552   2.519   3.226   2.688  0.2705  0.4183 -0.4944
  154EMC     C3 1553   2.345   3.153   2.542  0.3975 -0.0669 -0.5268
  154EMC     O1 1554   2.386   3.039   2.484 -0.4371  0.2830  0.4232
  154EMC     O2 1555   2.434   3.118   2.631 -0.2462  0.5420  0.4855
  154EMC     O3 1556   2.343   3.258   2.481  0.3914  0.0398 -0.3048
  154EMC     H1 1557   2.349   2.932   2.300 -1.6384 -1.2175  1.4368
  154EMC     H2 1558   2.454   3.072   2.299  1.4701 -2.5917  2.5443
  154EMC     H3 1559   2.279   3.096   2.321 -0.8084 -0.7785 -1.6135
  154EMC     C4 1560   2.638   3.166   2.757  0.4912  0.4564 -0.2997
  154EMC     H4 1561   2.455   3.284   2.754  0.0974 -0.3606  0.0445
  154EMC     H5 1562   2.557   3.296   2.614  5.5210 -1.7621 -0.3105
  154EMC     H6 1563   2.710   3.234   2.803  1.5059  1.3068 -2.9787
  154EMC     H7 1564   2.694   3.099   2.692  0.1480 -1.4271  1.2389
  154EMC     H8 1565   2.605   3.101   2.838  3.5542 -1.0396 -0.0840
  155EMC     C1 1566   0.646   0.013   0.763  0.4654  0.9524  0.5516
  155EMC     C2 1567   0.267   4.325   0.882  0.0558  1.2987  0.1289
  155EMC     C3 1568   0.470   4.434   0.915 -0.5960 -0.0742 -0.0561
  155EMC     O1 1569   0.575   4.404   0.829 -0.2367  0.2154 -0.0992
  155EMC     O2 1570   0.405   4.319   0.905 -0.0916 -0.4354  0.9714
  155EMC     O3 1571   0.415   0.047   0.913  0.3734  0.2684  0.5228
  155EMC     H1 1572   0.575   0.042   0.685 -2.4731 -2.4465  1.6803
  155EMC     H2 1573   0.737   4.472   0.716 -2.3149 -2.7472 -2.6306
  155EMC     H3 1574   0.664   0.099   0.827 -1.9987 -0.2654  3.0886
  155EMC     C4 1575   0.208   4.185   0.872  0.5014 -0.0326  0.1493
  155EMC     H4 1576   0.242   4.383   0.793 -0.7988 -1.5285 -1.6010
  155EMC     H5 1577   0.226   4.374   0.971  0.2109  1.3916  0.1504
  155EMC     H6 1578   0.233   4.140   0.776  2.6907  0.5692  0.3641
  155EMC     H7 1579   0.100   4.195   0.871  0.7149  3.0109  0.0622
  155EMC     H8 1580   0.246   4.122   0.953 -1.3937 -1.1724  0.2258
  156EMC     C1 1581   1.304   3.271   2.851 -0.6406 -0.8286 -0.2460
  156EMC     C2 1582   0.929   3.249   2.924  1.1391 -0.0436  0.2769
  156EMC     C3 1583   1.129   3.388   2.958 -0.0292 -0.8308 -0.5005
  156EMC     O1 1584   1.210   3.278   2.952 -0.2545  0.0741 -0.3269
  156EMC     O2 1585   1.033   3.302   3.006 -0.3491  0.9587 -0.0233
  156EMC     O3 1586   1.104   3.458   2.861  0.0651  0.4136 -0.0286
  156EMC     H1 1587   1.285   3.340   2.768  0.3086  2.4094  2.0113
  156EMC     H2 1588   1.302   3.166   2.824 -2.3948 -0.5660 -1.3042
  156EMC     H3 1589   1.393   3.294   2.909 -1.0069 -0.7126  0.2757
  156EMC     C4 1590   0.853   3.143   2.999  0.6885 -0.8235 -0.7795
  156EMC     H4 1591   0.977   3.204   2.837  2.5329 -0.2555  1.1358
  156EMC     H5 1592   0.867   3.333   2.891  0.6182 -0.5812 -0.1455
  156EMC     H6 1593   0.770   3.094   2.949  0.1344  0.6290 -1.3495
  156EMC     H7 1594   0.818   3.192   3.090 -0.4620 -0.5664 -1.3489
  156EMC     H8 1595   0.929   3.069   3.025  0.1318 -0.7481  1.2141
  157EMC     C1 1596   0.577   2.885   2.789  0.1644 -0.0024 -0.0750
  157EMC     C2 1597   0.619   2.789   2.361 -0.6757 -0.3395 -0.0372
  157EMC     C3 1598   0.519   2.792   2.578 -0.3938  0.3017 -0.0927
  157EMC     O1 1599   0.538   2.907   2.655 -0.8729  0.3228  0.3510
  157EMC     O2 1600   0.537   2.850   2.461 -0.1688  0.6880  0.6762
  157EMC     O3 1601   0.566   2.682   2.609  0.4150  0.4175 -0.2378
  157EMC     H1 1602   0.633   2.792   2.800 -1.5432 -1.1868 -0.9242
  157EMC     H2 1603   0.487   2.877   2.851  0.5852 -2.9182  0.2952
  157EMC     H3 1604   0.644   2.961   2.829  1.1940 -1.5755  1.3779
  157EMC     C4 1605   0.648   2.887   2.247 -0.0262 -0.6131 -0.1828
  157EMC     H4 1606   0.568   2.706   2.313 -1.1689  1.2029 -2.3310
  157EMC     H5 1607   0.711   2.747   2.402 -0.6264  1.6029  2.0381
  157EMC     H6 1608   0.750   2.867   2.216 -0.4682 -0.7068 -1.6700
  157EMC     H7 1609   0.634   2.989   2.281 -1.6183 -1.0933  0.7067
  157EMC     H8 1610   0.568   2.876   2.173 -0.1282 -0.3409 -0.1135
  158EMC     C1 1611   1.295   2.904   1.357 -0.0015  0.0548 -0.5739
  158EMC     C2 1612   0.946   3.092   1.235  0.3412  0.9683 -0.5192
  158EMC     C3 1613   1.158   3.098   1.366 -0.0554 -0.5819  0.2561
  158EMC     O1 1614   1.168   2.968   1.360  0.1945 -0.2425  0.0780
  158EMC     O2 1615   1.034   3.055   1.342 -0.0052  0.3556  0.5124
  158EMC     O3 1616   1.215   3.175   1.285 -0.3200 -0.1026 -0.0921
  158EMC     H1 1617   1.375   2.968   1.393  0.9022 -0.9865 -0.6763
  158EMC     H2 1618   1.323   2.872   1.256  1.3230 -0.9656  0.0864
  158EMC     H3 1619   1.284   2.815   1.419 -3.6199  2.2533  2.3813
  158EMC     C4 1620   0.879   2.972   1.184  0.2876 -0.0660 -0.2255
  158EMC     H4 1621   0.997   3.142   1.153  3.1587 -1.7738 -0.6137
  158EMC     H5 1622   0.873   3.164   1.273 -2.0191 -0.6620 -1.7650
  158EMC     H6 1623   0.829   3.005   1.093  0.1158  0.7287  0.1509
  158EMC     H7 1624   0.821   2.917   1.258 -2.4097  1.2875 -1.2024
  158EMC     H8 1625   0.950   2.897   1.148 -0.0626 -0.7416  0.4740
  159EMC     C1 1626   1.283   1.612   2.003 -0.0768  0.2911  0.3056
  159EMC     C2 1627   1.286   1.236   2.135 -0.3808  0.5102 -0.4504
  159EMC     C3 1628   1.395   1.450   2.129 -0.6404  0.4212 -0.3188
  159EMC     O1 1629   1.285   1.484   2.068  0.2880 -0.0029  0.2745
  159EMC     O2 1630   1.383   1.324   2.078 -0.0076 -0.3015  0.0271
  159EMC     O3 1631   1.504   1.503   2.101 -0.0105 -0.0970 -0.0088
  159EMC     H1 1632   1.192   1.614   1.943  0.0171 -0.8345  0.1104
  159EMC     H2 1633   1.374   1.626   1.944 -2.3626  1.4710 -3.2288
  159EMC     H3 1634   1.281   1.699   2.069 -1.3449 -0.6900  1.6329
  159EMC     C4 1635   1.281   1.096   2.073  0.1759 -0.1349 -0.4246
  159EMC     H4 1636   1.184   1.275   2.135 -0.2664  0.8174  0.2623
  159EMC     H5 1637   1.299   1.223   2.242 -1.7164 -1.4132 -0.4661
  159EMC     H6 1638   1.380   1.051   2.064 -0.1166 -1.0274  0.6205
  159EMC     H7 1639   1.232   1.094   1.976 -2.3326 -2.0501  0.7678
  159EMC     H8 1640   1.225   1.030   2.139  1.2628  0.0928  0.7800
  160EMC     C1 1641   1.117   4.191   3.223  0.1891 -0.4890  0.4916
  160EMC     C2 1642   0.741   4.279   2.929 -0.2321 -0.1251 -0.6775
  160EMC     C3 1643   0.911   4.245   3.099  0.0182  0.1757  0.4890
  160EMC     O1 1644   1.039   4.188   3.103  0.2286 -0.1060 -0.5631
  160EMC     O2 1645   0.845   4.199   2.992  0.6735 -0.1633  0.0852
  160EMC     O3 1646   0.888   4.358   3.141 -0.2644 -0.2337 -0.2228
  160EMC     H1 1647   1.183   4.105   3.236  0.4104 -0.4845 -0.4863
  160EMC     H2 1648   1.066   4.212   3.317  2.0417  1.4449  1.1417
  160EMC     H3 1649   1.184   4.273   3.199 -1.1397  0.6140  0.4778
  160EMC     C4 1650   0.688   4.226   2.792  0.0877  0.0095 -0.2296
  160EMC     H4 1651   0.784   4.376   2.904  1.2009 -0.6091 -0.1955
  160EMC     H5 1652   0.676   4.304   3.012  0.4192  1.0531 -0.5037
  160EMC     H6 1653   0.638   4.303   2.734 -1.8974 -0.7680  0.3898
  160EMC     H7 1654   0.611   4.152   2.811 -1.8438  2.0688  0.4576
  160EMC     H8 1655   0.764   4.179   2.729 -0.7498 -1.5886 -0.0829
  161EMC     C1 1656   3.208   3.071   2.361  0.0949 -0.0546  0.5359
  161EMC     C2 1657   3.019   3.051   2.050 -0.3278  0.0778 -0.3400
  161EMC     C3 1658   3.097   2.904   2.226  0.5927 -0.7506 -0.5169
  161EMC     O1 1659   3.205   2.979   2.254  0.2024 -0.3926  0.0544
  161EMC     O2 1660   3.114   2.956   2.097  0.2922 -0.1934 -0.2213
  161EMC     O3 1661   2.991   2.910   2.285 -0.0582 -0.2859 -0.0265
  161EMC     H1 1662   3.204   3.012   2.453 -1.0528 -0.1051  0.4773
  161EMC     H2 1663   3.121   3.137   2.361  1.1965  1.5014  2.1320
  161EMC     H3 1664   3.299   3.129   2.375 -0.0253  0.0432  0.9227
  161EMC     C4 1665   3.074   3.115   1.917  0.5139  0.3846 -0.1111
  161EMC     H4 1666   3.006   3.126   2.128  1.7240  0.3841 -0.2211
  161EMC     H5 1667   2.928   2.994   2.032 -1.4742  0.9856  2.0875
  161EMC     H6 1668   3.020   3.208   1.900 -1.2745 -0.7709 -1.0409
  161EMC     H7 1669   3.065   3.043   1.836  1.2709 -0.7461  0.7875
  161EMC     H8 1670   3.178   3.145   1.929  0.8314 -1.5594  3.1106
  162EMC     C1 1671   4.430   4.044   0.340  0.5525  0.0699  0.0299
  162EMC     C2 1672   4.254   3.754   0.102  0.1804  0.3014  0.5512
  162EMC     C3 1673   4.384   3.947   0.135 -0.3128  0.0457 -0.5787
  162EMC     O1 1674   4.337   4.021   0.236 -0.3083  0.1434  0.0272
  162EMC     O2 1675   4.261   3.895   0.111  0.3665 -0.1500 -0.4351
  162EMC     O3 1676   4.487   3.882   0.140  0.4424  0.4288 -0.4061
  162EMC     H1 1677   4.443   3.942   0.374 -3.5521 -0.4618  0.4724
  162EMC     H2 1678   4.404   4.105   0.426 -0.1047 -0.6323  0.3370
  162EMC     H3 1679   0.032   4.079   0.306  0.7683 -0.1948  0.3648
  162EMC     C4 1680   4.129   3.717   0.020 -0.2075  0.2888  0.2958
  162EMC     H4 1681   4.261   3.713   0.203  0.9566  3.6485  2.0020
  162EMC     H5 1682   4.345   3.708   0.064  0.1924 -0.3523  1.3378
  162EMC     H6 1683   4.157   3.774   4.427  1.8289  1.2005  1.4337
  162EMC     H7 1684   4.035   3.751   0.065 -1.0868 -2.7423  0.9608
  162EMC     H8 1685   4.133   3.612   4.488 -0.7045  0.5448 -0.8013
  163EMC     C1 1686   1.441   3.925   1.394 -0.3826 -0.2819  0.6651
  163EMC     C2 1687   1.044   4.011   1.645 -0.6304 -0.3475  0.5305
  163EMC     C3 1688   1.245   3.954   1.526 -0.6256  0.9188 -0.2060
  163EMC     O1 1689   1.310   3.985   1.416 -0.0768  0.1507 -0.2075
  163EMC     O2 1690   1.136   4.033   1.540 -0.0406 -0.3463 -0.0225
  163EMC     O3 1691   1.277   3.860   1.598  0.5695  0.4568  0.0352
  163EMC     H1 1692   1.433   3.817   1.387  3.8776 -0.7236 -0.4787
  163EMC     H2 1693   1.497   3.959   1.481 -1.0974  2.6576  0.0725
  163EMC     H3 1694   1.496   3.965   1.308 -0.5945  1.0559  1.1304
  163EMC     C4 1695   0.990   4.149   1.690  0.5006 -1.1044  0.3076
  163EMC     H4 1696   1.091   3.957   1.728  0.6794  2.8335  2.0334
  163EMC     H5 1697   0.968   3.940   1.615  0.4141 -0.9072 -0.8978
  163EMC     H6 1698   0.934   4.152   1.784  0.6509 -2.1846  0.4484
  163EMC     H7 1699   0.944   4.208   1.611  0.7344  0.4907  1.3072
  163EMC     H8 1700   1.078   4.210   1.711 -0.8633  0.5821  1.4515
  164EMC     C1 1701   3.394   0.753   1.590  0.3621  0.3197  0.1743
  164EMC     C2 1702   3.661   0.761   1.911  0.0625  0.1700  0.2793
  164EMC     C3 1703   3.445   0.710   1.820  0.8200 -0.3140 -0.5586
  164EMC     O1 1704   3.460   0.792   1.708 -0.3361 -0.1218 -0.4135
  164EMC     O2 1705   3.579   0.722   1.799 -0.1288 -0.0090 -0.3435
  164EMC     O3 1706   3.398   0.747   1.927  0.0238 -0.1652 -0.5054
  164EMC     H1 1707   3.420   0.652   1.559  2.3431  0.8147  0.1179
  164EMC     H2 1708   3.413   0.813   1.501 -2.1167 -0.5499 -1.0244
  164EMC     H3 1709   3.288   0.759   1.614  0.6441 -1.9371  2.4627
  164EMC     C4 1710   3.806   0.779   1.855  0.0943 -0.1985  0.4751
  164EMC     H4 1711   3.654   0.691   1.994 -0.4985  0.8610  0.8228
  164EMC     H5 1712   3.622   0.857   1.943 -0.1498  0.3677 -0.5576
  164EMC     H6 1713   3.826   0.849   1.774  0.5284  0.7084  1.3518
  164EMC     H7 1714   3.854   0.688   1.818  0.1385 -1.1856  2.7646
  164EMC     H8 1715   3.856   0.813   1.946 -3.0752 -1.3817  2.8724
  165EMC     C1 1716   1.778   3.356   3.269  0.1661 -0.7031  0.2320
  165EMC     C2 1717   2.080   3.117   3.525  0.0517 -0.1827 -0.4404
  165EMC     C3 1718   1.893   3.226   3.435  0.6423 -0.1426  0.3979
  165EMC     O1 1719   1.892   3.339   3.352 -0.3135  0.3412 -0.1456
  165EMC     O2 1720   2.022   3.232   3.484 -0.7484 -0.5855 -0.1693
  165EMC     O3 1721   1.837   3.121   3.404  0.3303 -0.1550  0.1649
  165EMC     H1 1722   1.784   3.278   3.194  2.6513 -1.5607  1.2217
  165EMC     H2 1723   1.768   3.459   3.233  0.7716 -0.2594  1.2775
  165EMC     H3 1724   1.686   3.345   3.325 -1.3175  1.1958 -1.6507
  165EMC     C4 1725   2.162   3.053   3.417  0.1135  0.5448 -0.0197
  165EMC     H4 1726   2.014   3.043   3.570  1.0291  0.4039  2.1277
  165EMC     H5 1727   2.158   3.132   3.600  1.8482  0.4723 -2.3300
  165EMC     H6 1728   2.210   2.959   3.445 -0.4382 -0.1939 -1.4531
  165EMC     H7 1729   2.239   3.121   3.381 -0.1647  0.3760 -0.9522
  165EMC     H8 1730   2.093   3.029   3.336 -1.7091  0.8520  1.3809
  166EMC     C1 1731   0.635   0.022   3.384  0.3335 -0.4534 -0.5788
  166EMC     C2 1732   1.081   0.048   3.377 -0.4128 -0.0732 -0.0463
  166EMC     C3 1733   0.857   0.021   3.466 -0.0092 -0.8509  0.6833
  166EMC     O1 1734   0.760   0.078   3.391 -0.1729  0.5825  0.6096
  166EMC     O2 1735   0.959   0.105   3.404  0.5317  0.0840  0.1418
  166EMC     O3 1736   0.869   4.397   3.484 -0.2893 -0.0183 -0.0309
  166EMC     H1 1737   0.644   4.413   3.355  0.1118 -0.9434  1.0245
  166EMC     H2 1738   0.572   0.078   3.315 -0.6197  1.0867  1.4193
  166EMC     H3 1739   0.598   0.031   3.487  3.4209  0.7138  0.5486
  166EMC     C4 1740   1.180   0.080   3.484 -0.0966 -0.8201 -0.2536
  166EMC     H4 1741   1.121   0.084   3.282 -1.0205  1.6453  0.3152
  166EMC     H5 1742   1.061   4.437   3.375 -2.0760  0.1596  1.4622
  166EMC     H6 1743   1.279   0.069   3.441 -0.1720  2.1887 -1.4418
  166EMC     H7 1744   1.171   0.020   3.575  1.3309 -0.4552  0.1446
  166EMC     H8 1745   1.183   0.178   3.530  0.2224 -0.1305 -1.6912
  167EMC     C1 1746   1.624   3.540   4.036 -1.0490  0.8111  0.0837
  167EMC     C2 1747   2.047   3.486   4.217 -0.0757 -0.5909  0.5605
  167EMC     C3 1748   1.826   3.536   4.162  0.1295 -0.2648  0.0108
  167EMC     O1 1749   1.732   3.476   4.087 -0.1691  0.1159 -0.3371
  167EMC     O2 1750   1.917   3.446   4.194  0.0822 -0.5016  0.1928
  167EMC     O3 1751   1.854   3.656   4.152 -0.0664  0.4057  0.2561
  167EMC     H1 1752   1.624   3.649   4.042  0.0911  0.8370 -0.2517
  167EMC     H2 1753   1.538   3.495   4.087  1.3243 -1.8893  2.0057
  167EMC     H3 1754   1.620   3.507   3.932  2.9758  1.1875 -0.3416
  167EMC     C4 1755   2.108   3.395   4.315 -0.3484  0.2977 -0.0749
  167EMC     H4 1756   2.057   3.579   4.272  0.4072 -0.7208  0.7000
  167EMC     H5 1757   2.101   3.493   4.123 -0.4186 -2.8449  0.1201
  167EMC     H6 1758   2.211   3.418   4.341  0.0942 -2.5928  1.1125
  167EMC     H7 1759   2.103   3.290   4.284 -2.2162 -0.3514  2.1248
  167EMC     H8 1760   2.052   3.400   4.408 -0.8649 -1.1672 -0.2690
  168EMC     C1 1761   1.202   3.485   2.487  0.0646  0.3194  0.5858
  168EMC     C2 1762   1.490   3.524   2.215  0.3075 -0.2283 -0.6819
  168EMC     C3 1763   1.423   3.429   2.426 -1.1654 -0.0703  0.7290
  168EMC     O1 1764   1.342   3.520   2.478 -0.0752 -0.2574 -0.2102
  168EMC     O2 1765   1.468   3.540   2.350  0.4184  0.2133 -1.0102
  168EMC     O3 1766   1.393   3.322   2.379  0.3291  0.1382 -0.4336
  168EMC     H1 1767   1.182   3.406   2.415  0.2834  2.2350 -1.6905
  168EMC     H2 1768   1.143   3.573   2.462  1.6307  0.9820 -0.9754
  168EMC     H3 1769   1.174   3.465   2.590  0.6030  2.2293  1.1313
  168EMC     C4 1770   1.571   3.635   2.146  0.2368 -0.1683 -0.9115
  168EMC     H4 1771   1.385   3.529   2.183 -0.7829 -0.1786  2.5113
  168EMC     H5 1772   1.528   3.424   2.199 -0.6782 -0.8069  0.3949
  168EMC     H6 1773   1.571   3.621   2.038 -0.1259  0.4976 -0.9964
  168EMC     H7 1774   1.676   3.633   2.177 -0.0433  1.8876  0.3401
  168EMC     H8 1775   1.537   3.732   2.180 -1.0750 -1.1150  0.6620
  169EMC     C1 1776   0.306   3.752   1.513  0.4674  0.0208 -0.2308
  169EMC     C2 1777   0.341   3.502   1.827 -0.4347 -0.4340  0.2012
  169EMC     C3 1778   0.286   3.706   1.740  0.4533  0.6602  0.1498
  169EMC     O1 1779   0.363   3.713   1.635  0.4228 -0.1607 -1.0355
  169EMC     O2 1780   0.377   3.635   1.795 -0.3246 -0.1267  0.2221
  169EMC     O3 1781   0.163   3.687   1.733  0.2217 -0.6427 -0.6159
  169EMC     H1 1782   0.199   3.733   1.522  0.2520  0.8711 -0.9712
  169EMC     H2 1783   0.354   3.698   1.431  0.6135 -1.0093  0.5014
  169EMC     H3 1784   0.315   3.859   1.495  1.3298 -0.0170 -0.0828
  169EMC     C4 1785   0.461   3.422   1.869  0.0242 -0.0782  0.2910
  169EMC     H4 1786   0.287   3.455   1.745 -1.6535  2.9762 -1.1116
  169EMC     H5 1787   0.263   3.507   1.904 -0.4130  0.5512  0.1709
  169EMC     H6 1788   0.501   3.456   1.965  0.6109  2.2425 -0.6964
  169EMC     H7 1789   0.544   3.424   1.799 -0.6297 -0.7213 -0.5279
  169EMC     H8 1790   0.432   3.318   1.883  0.2654 -0.2695 -0.5882
  170EMC     C1 1791   0.306   0.692   3.088 -0.6385 -0.5492 -0.0711
  170EMC     C2 1792   0.643   0.549   3.267  0.3478  0.0093  0.1894
  170EMC     C3 1793   0.528   0.647   3.077 -0.1240  0.3600  0.0779
  170EMC     O1 1794   0.439   0.732   3.120  0.0253  0.2803  0.0738
  170EMC     O2 1795   0.525   0.573   3.189 -0.4061 -0.2195  0.9809
  170EMC     O3 1796   0.630   0.688   3.019  0.1409  0.7597  0.0865
  170EMC     H1 1797   0.277   0.691   2.983 -0.2573  0.5833 -0.1945
  170EMC     H2 1798   0.239   0.768   3.129 -1.7252 -1.5933  0.1597
  170EMC     H3 1799   0.269   0.597   3.127 -0.3539 -0.4316  0.4924
  170EMC     C4 1800   0.630   0.416   3.348  0.1382 -0.1595  0.2829
  170EMC     H4 1801   0.665   0.634   3.332  0.9637 -1.0844  1.4635
  170EMC     H5 1802   0.725   0.527   3.198 -0.4848 -2.2737 -0.1578
  170EMC     H6 1803   0.720   0.403   3.409 -1.5039  0.0651  2.9394
  170EMC     H7 1804   0.635   0.322   3.294  0.8636  1.4319 -2.6520
  170EMC     H8 1805   0.553   0.423   3.425 -0.5780  0.2258 -0.4591
  171EMC     C1 1806   1.023   2.670   1.370  0.2421 -0.2784 -0.1921
  171EMC     C2 1807   1.006   2.357   1.128  0.2400 -0.6709 -0.7251
  171EMC     C3 1808   1.086   2.588   1.152 -0.4459 -0.9102 -0.5253
  171EMC     O1 1809   1.102   2.590   1.284 -0.0158 -0.0115 -0.3269
  171EMC     O2 1810   1.091   2.463   1.174 -0.6435  0.3237  0.1175
  171EMC     O3 1811   0.999   2.663   1.099  0.5091  0.1433  0.1718
  171EMC     H1 1812   0.918   2.646   1.360  0.4699 -0.6483 -2.0761
  171EMC     H2 1813   1.039   2.774   1.344 -0.7298  0.3266  1.4968
  171EMC     H3 1814   1.052   2.655   1.474  0.7267  0.7685 -0.1661
  171EMC     C4 1815   1.071   2.225   1.164  0.0763  0.6729  0.0916
  171EMC     H4 1816   0.994   2.361   1.020  0.6064 -1.4299 -0.7998
  171EMC     H5 1817   0.901   2.358   1.158  0.4779 -1.6726  0.1897
  171EMC     H6 1818   1.176   2.214   1.137 -0.3077 -0.1915 -1.1397
  171EMC     H7 1819   1.019   2.139   1.121  0.5414 -0.5464  1.8630
  171EMC     H8 1820   1.076   2.211   1.272  1.7105  0.7237  0.0524
  172EMC     C1 1821   2.178   1.630   1.626  0.6984  0.6828  0.4002
  172EMC     C2 1822   2.426   1.497   1.794 -0.7661  0.3710 -0.7590
  172EMC     C3 1823   2.300   1.694   1.815 -0.0549 -0.5456 -0.0731
  172EMC     O1 1824   2.196   1.628   1.766  0.1094 -0.4787  0.3090
  172EMC     O2 1825   2.335   1.575   1.860  0.3138 -0.0745  0.5310
  172EMC     O3 1826   2.371   1.767   1.745  0.1003  0.1405 -0.1065
  172EMC     H1 1827   2.101   1.555   1.603 -0.4618  0.8507  3.3084
  172EMC     H2 1828   2.258   1.578   1.573  0.1019  1.5557 -1.4217
  172EMC     H3 1829   2.167   1.729   1.582  1.0704  0.6507  0.2332
  172EMC     C4 1830   2.488   1.400   1.896  0.1872 -0.6234  0.1255
  172EMC     H4 1831   2.503   1.563   1.756  0.4596  0.1585  1.2218
  172EMC     H5 1832   2.378   1.449   1.709 -4.0161  0.2434  0.9845
  172EMC     H6 1833   2.527   1.313   1.843  0.0152 -0.8777  0.4166
  172EMC     H7 1834   2.404   1.372   1.958 -1.4884  0.6374 -1.4766
  172EMC     H8 1835   2.562   1.459   1.952  0.0049 -0.2907  0.0215
  173EMC     C1 1836   1.003   3.800   2.387  0.0180 -0.8374 -0.2070
  173EMC     C2 1837   1.177   4.042   2.694  0.6057 -0.3483 -0.0981
  173EMC     C3 1838   1.039   3.990   2.517 -0.2005  0.5465 -0.2012
  173EMC     O1 1839   1.079   3.911   2.411 -0.1186 -0.4038 -0.2236
  173EMC     O2 1840   1.157   4.041   2.553  0.3932 -0.2437 -1.4818
  173EMC     O3 1841   0.949   3.951   2.597  0.5105  0.4113 -0.0608
  173EMC     H1 1842   0.909   3.844   2.355  0.6139  1.7753  1.3739
  173EMC     H2 1843   0.992   3.730   2.469 -0.2405  0.8978  1.3030
  173EMC     H3 1844   1.040   3.738   2.305 -0.2586  1.0263 -1.8345
  173EMC     C4 1845   1.275   4.158   2.725 -0.1500  0.4202 -0.7232
  173EMC     H4 1846   1.210   3.951   2.745 -1.6694  0.4896  3.1658
  173EMC     H5 1847   1.081   4.071   2.735 -0.1327 -0.5211 -1.6435
  173EMC     H6 1848   1.266   4.196   2.827 -0.0526 -0.6612 -0.3045
  173EMC     H7 1849   1.255   4.243   2.660 -2.8800 -1.1788 -2.1794
  173EMC     H8 1850   1.377   4.123   2.711 -0.3341  0.0738 -1.2362
  174EMC     C1 1851   3.600   2.014   0.393 -0.2735 -0.4657  1.1033
  174EMC     C2 1852   3.914   1.800   0.385 -0.0339  0.1598  0.1410
  174EMC     C3 1853   3.805   1.970   0.271 -0.3981 -0.3573 -0.1527
  174EMC     O1 1854   3.680   1.943   0.299 -0.2176  0.0717  0.4378
  174EMC     O2 1855   3.812   1.847   0.303 -0.2150  0.3184 -0.2115
  174EMC     O3 1856   3.864   2.076   0.319 -0.7773  0.0223  0.1412
  174EMC     H1 1857   3.635   2.015   0.496  1.2516 -2.8505  0.6984
  174EMC     H2 1858   3.494   1.987   0.396 -0.6054  0.5898 -0.0676
  174EMC     H3 1859   3.585   2.115   0.355  1.1966 -1.6169 -3.0564
  174EMC     C4 1860   3.876   1.654   0.398  1.1329  0.2284 -0.0605
  174EMC     H4 1861   3.916   1.838   0.487 -3.0902 -0.3199  0.4780
  174EMC     H5 1862   4.011   1.816   0.338  0.8800 -0.6757  1.6809
  174EMC     H6 1863   3.783   1.629   0.448  1.2115  0.2047  0.0742
  174EMC     H7 1864   3.935   1.611   0.480 -2.1103 -2.4842  1.0976
  174EMC     H8 1865   3.900   1.588   0.314  0.5963 -0.0308 -0.0174
  175EMC     C1 1866   1.907   1.079   0.492 -0.3154  0.0484 -0.3910
  175EMC     C2 1867   2.222   0.923   0.492 -0.2036 -0.7688 -0.0602
  175EMC     C3 1868   2.069   0.984   0.649 -0.3009  0.5311 -0.1035
  175EMC     O1 1869   1.962   0.970   0.566 -0.0475  0.3674  0.7899
  175EMC     O2 1870   2.097   0.901   0.549 -0.1333 -0.1196  0.6738
  175EMC     O3 1871   2.126   1.093   0.683  0.2789  0.0159 -0.5298
  175EMC     H1 1872   1.860   1.148   0.562 -1.8697 -3.7649  2.6832
  175EMC     H2 1873   1.848   1.051   0.405  1.7433  0.1439 -1.9119
  175EMC     H3 1874   1.994   1.134   0.455 -0.0248  0.8013  1.3240
  175EMC     C4 1875   2.295   0.796   0.447  0.3480  0.0152  0.2144
  175EMC     H4 1876   2.292   0.978   0.555 -0.2406 -0.0816 -0.6066
  175EMC     H5 1877   2.215   0.990   0.406  0.1937 -2.8458 -1.7797
  175EMC     H6 1878   2.245   0.734   0.372  0.7503  0.5840 -0.5358
  175EMC     H7 1879   2.323   0.737   0.534 -0.1507 -2.0613 -0.9681
  175EMC     H8 1880   2.382   0.813   0.384 -0.6403 -0.9715 -1.4837
  176EMC     C1 1881   1.704   0.520   1.344  0.0262 -0.6005  0.7619
  176EMC     C2 1882   1.915   0.194   1.219  0.3085 -0.3216  0.0253
  176EMC     C3 1883   1.716   0.303   1.239 -0.3334  0.7822 -0.4400
  176EMC     O1 1884   1.774   0.393   1.323  0.4660 -0.4079 -0.4165
  176EMC     O2 1885   1.810   0.237   1.296  0.3699  0.2676  0.5395
  176EMC     O3 1886   1.705   0.326   1.120  0.1658 -0.1692  0.7077
  176EMC     H1 1887   1.710   0.550   1.448  0.4358 -1.8241  1.1077
  176EMC     H2 1888   1.598   0.519   1.316  0.3984  0.8391 -0.8799
  176EMC     H3 1889   1.752   0.587   1.273  0.5115 -1.4997  0.2151
  176EMC     C4 1890   1.972   0.073   1.292  0.2052  0.1877 -0.3610
  176EMC     H4 1891   1.996   0.263   1.199  2.2038 -3.1132 -2.9085
  176EMC     H5 1892   1.891   0.168   1.116  2.8148  0.4175 -0.8025
  176EMC     H6 1893   2.034   0.014   1.224 -1.2920  0.3216 -1.8963
  176EMC     H7 1894   1.898   0.016   1.348 -1.6890  1.8028 -1.0969
  176EMC     H8 1895   2.043   0.114   1.364  0.9011 -0.2159 -0.8053
  177EMC     C1 1896   4.214   1.624   2.524  0.6714 -0.2207 -0.4549
  177EMC     C2 1897   4.138   1.292   2.207  0.9237  0.1053 -0.1857
  177EMC     C3 1898   4.191   1.456   2.369 -0.0843 -0.2745 -0.2758
  177EMC     O1 1899   4.139   1.526   2.470  0.0109 -0.2859 -0.4031
  177EMC     O2 1900   4.115   1.355   2.335 -0.3024 -0.0198  0.3705
  177EMC     O3 1901   4.292   1.494   2.306 -0.0203 -0.2467 -0.0485
  177EMC     H1 1902   4.308   1.583   2.563 -1.7079 -3.5701  2.3930
  177EMC     H2 1903   4.160   1.660   2.611  0.8845 -0.4349 -0.2312
  177EMC     H3 1904   4.229   1.707   2.455  0.6689  1.9137  1.9774
  177EMC     C4 1905   4.048   1.169   2.197 -0.2655 -0.5114 -0.2867
  177EMC     H4 1906   4.238   1.254   2.186  0.8713 -0.0973 -0.0662
  177EMC     H5 1907   4.127   1.366   2.128 -1.9875 -0.9187 -0.8480
  177EMC     H6 1908   4.083   1.109   2.281  3.3181 -0.2731 -1.4747
  177EMC     H7 1909   4.071   1.117   2.105 -0.9846  2.3196 -2.2063
  177EMC     H8 1910   3.940   1.184   2.207 -0.2110  0.4801 -1.0658
  178EMC     C1 1911   3.126   4.170   1.783  0.2979 -0.5095 -0.4592
  178EMC     C2 1912   2.866   0.000   1.851  0.4198  0.3742  0.3653
  178EMC     C3 1913   2.918   4.289   1.737  0.2224 -0.1926  0.2106
  178EMC     O1 1914   2.997   4.225   1.827 -0.8475  0.7229  0.2640
  178EMC     O2 1915   2.861   4.354   1.848 -0.0182  0.0212 -0.1623
  178EMC     O3 1916   2.955   4.339   1.636  0.1842 -0.4797  0.8127
  178EMC     H1 1917   3.160   4.102   1.861 -0.1107  1.2166  1.2805
  178EMC     H2 1918   3.212   4.237   1.783  1.2634 -1.5886  2.4817
  178EMC     H3 1919   3.112   4.126   1.684  1.9199 -0.4871 -0.7394
  178EMC     C4 1920   2.766   0.057   1.952 -0.0361  0.1400 -0.2336
  178EMC     H4 1921   2.833   0.028   1.751  0.5932 -1.6398 -0.2919
  178EMC     H5 1922   2.963   0.047   1.867  1.1963 -1.3610  1.0111
  178EMC     H6 1923   2.758   0.166   1.950 -3.6276  0.2661  4.1395
  178EMC     H7 1924   2.812   0.036   2.049  2.2083  2.6605 -0.6333
  178EMC     H8 1925   2.663   0.021   1.947  0.9060 -2.9401  0.6327
  179EMC     C1 1926   2.384   3.035   0.093  0.4567  0.3744  0.2989
  179EMC     C2 1927   2.617   2.955   0.419  0.1336  0.3056  0.0531
  179EMC     C3 1928   2.593   2.967   0.178 -0.5478  0.2633  0.2507
  179EMC     O1 1929   2.524   3.064   0.115  0.8558  0.1897  0.0440
  179EMC     O2 1930   2.600   3.026   0.302  0.0988 -0.1854  0.0526
  179EMC     O3 1931   2.572   2.844   0.175  0.6716 -0.3501  0.4955
  179EMC     H1 1932   2.334   3.107   0.028  0.0462 -0.4176 -0.2856
  179EMC     H2 1933   2.333   3.006   0.185 -0.4046  1.2688  0.1152
  179EMC     H3 1934   2.395   2.956   0.019 -1.0138  0.3927  0.0271
  179EMC     C4 1935   2.677   3.055   0.520  0.3331 -0.7130  0.2960
  179EMC     H4 1936   2.689   2.873   0.412  0.5715  0.7252 -0.3774
  179EMC     H5 1937   2.517   2.918   0.440 -1.2818  3.1922 -1.0411
  179EMC     H6 1938   2.668   3.010   0.619  3.2415  0.3552  1.1275
  179EMC     H7 1939   2.620   3.148   0.520  0.6386 -0.5191  1.1606
  179EMC     H8 1940   2.778   3.088   0.498  0.5695 -1.0862  0.8000
  180EMC     C1 1941   0.217   2.187   1.017  0.0846  0.9740  0.6020
  180EMC     C2 1942   0.490   2.183   0.751  0.0775 -1.1942 -0.2363
  180EMC     C3 1943   0.383   2.041   0.914 -0.0561  0.4477  0.4195
  180EMC     O1 1944   0.353   2.136   1.012  0.0859  0.3112  0.2540
  180EMC     O2 1945   0.475   2.127   0.888 -0.1706 -0.4978 -0.0868
  180EMC     O3 1946   0.304   1.999   0.830  0.1900  0.4068 -0.1097
  180EMC     H1 1947   0.203   2.251   1.104 -1.7676  1.2048  0.1815
  180EMC     H2 1948   0.159   2.098   1.043 -1.4050  1.3367 -1.1984
  180EMC     H3 1949   0.192   2.219   0.916  3.6241 -1.5481 -1.3012
  180EMC     C4 1950   0.603   2.100   0.692 -0.4296 -0.2366  0.2701
  180EMC     H4 1951   0.522   2.286   0.759  3.6459 -2.1983  0.1430
  180EMC     H5 1952   0.396   2.183   0.697 -0.7784  1.2921  1.0820
  180EMC     H6 1953   0.688   2.102   0.760  0.7965  1.9376 -1.2103
  180EMC     H7 1954   0.643   2.149   0.603  0.2615 -1.0967  0.1006
  180EMC     H8 1955   0.584   1.993   0.693  0.0599 -0.3510 -0.8386
  181EMC     C1 1956   4.123   4.439   1.555  0.4349  1.4006 -0.1586
  181EMC     C2 1957   4.406   4.450   1.204  0.3207 -0.2140 -0.5569
  181EMC     C3 1958   4.199   4.473   1.334  0.5914 -0.0361  0.3108
  181EMC     O1 1959   4.206   4.399   1.447  0.5919 -0.0374  0.8347
  181EMC     O2 1960   4.310   4.404   1.295  0.2482 -0.0260  0.1729
  181EMC     O3 1961   4.191   0.096   1.332  0.0728 -0.3657  0.5073
  181EMC     H1 1962   4.090   4.353   1.613 -2.7480  3.1132  0.7759
  181EMC     H2 1963   4.030   4.484   1.522 -0.8540 -1.4786 -0.7578
  181EMC     H3 1964   4.177   0.007   1.624  2.0433 -0.5513  0.4922
  181EMC     C4 1965   0.007   4.336   1.161  0.1848 -0.6268 -0.3294
  181EMC     H4 1966   4.453   0.040   1.252  0.8304 -0.8048  0.0223
  181EMC     H5 1967   4.363   4.491   1.113 -2.6068 -2.2609 -0.2092
  181EMC     H6 1968   0.093   4.397   1.136 -0.0780  0.5684  1.4710
  181EMC     H7 1969   4.480   4.287   1.067  0.7077 -2.5036  0.4912
  181EMC     H8 1970   0.034   4.268   1.242  0.3870  0.4180  0.5048
  182EMC     C1 1971   0.429   3.661   4.440 -0.3140 -0.5197  0.2021
  182EMC     C2 1972   0.734   3.818   4.284 -0.2529 -0.2888  0.0203
  182EMC     C3 1973   0.669   3.623   4.395  0.3477  0.5598  0.4209
  182EMC     O1 1974   0.540   3.651   4.354  0.1170 -0.3457 -0.1635
  182EMC     O2 1975   0.661   3.700   4.288  0.5809 -0.0583 -0.0119
  182EMC     O3 1976   0.717   3.655   0.004 -0.1347 -0.2816 -0.0358
  182EMC     H1 1977   0.455   3.624   0.043  1.1421  0.8822  0.3758
  182EMC     H2 1978   0.341   3.614   4.396 -0.2153  1.2239 -2.0016
  182EMC     H3 1979   0.407   3.768   4.439 -1.5529 -0.7390  0.9472
  182EMC     C4 1980   0.685   3.893   4.155 -0.0755 -0.3761 -0.1757
  182EMC     H4 1981   0.838   3.785   4.271 -1.0026 -2.1495 -1.8004
  182EMC     H5 1982   0.714   3.872   4.376 -2.0283  1.1494 -1.1597
  182EMC     H6 1983   0.579   3.920   4.157 -0.2039  0.3011 -4.6071
  182EMC     H7 1984   0.703   3.846   4.059 -2.4086  2.7685 -2.3970
  182EMC     H8 1985   0.734   3.990   4.146  0.9462 -0.8644  0.0741
  183EMC     C1 1986   1.673   2.948   1.772  0.3211  0.0214 -0.9905
  183EMC     C2 1987   1.675   3.139   1.406  0.2819 -0.3866 -0.2782
  183EMC     C3 1988   1.721   2.952   1.540 -0.1199  0.3345 -0.4487
  183EMC     O1 1989   1.629   2.951   1.638 -0.2677  0.0481 -0.1751
  183EMC     O2 1990   1.640   3.056   1.510  0.0984 -0.0709 -0.0721
  183EMC     O3 1991   1.840   2.967   1.563  0.0153 -0.0649  0.2570
  183EMC     H1 1992   1.594   2.944   1.847  1.2723  1.0052  0.0925
  183EMC     H2 1993   1.748   3.024   1.794  0.3294 -0.2614  0.0205
  183EMC     H3 1994   1.730   2.855   1.778 -1.0708 -0.7687  1.2695
  183EMC     C4 1995   1.619   3.279   1.426  0.0345 -0.4762  0.7367
  183EMC     H4 1996   1.642   3.099   1.310  1.2831 -0.0055 -0.8022
  183EMC     H5 1997   1.784   3.151   1.402  0.4962 -2.0543 -0.2080
  183EMC     H6 1998   1.660   3.334   1.510  1.0399  1.1329 -0.7613
  183EMC     H7 1999   1.510   3.268   1.428  0.0085 -0.8517 -1.3661
  183EMC     H8 2000   1.642   3.337   1.338  0.2402 -1.7667 -0.0817
  184EMC     C1 2001   3.511   2.878   2.017 -0.5604 -0.4370  0.4115
  184EMC     C2 2002   3.398   3.180   1.753 -0.1182  0.1204  0.0041
  184EMC     C3 2003   3.486   3.106   1.959 -0.5339 -0.2676 -0.2380
  184EMC     O1 2004   3.563   3.006   1.999 -0.2368  0.2605 -0.3093
  184EMC     O2 2005   3.407   3.080   1.849 -0.7616  0.0650 -0.1938
  184EMC     O3 2006   3.519   3.223   1.982 -0.5942  0.0878 -0.5221
  184EMC     H1 2007   3.557   2.824   2.101  0.6315 -2.1045 -1.2407
  184EMC     H2 2008   3.537   2.815   1.932 -0.8377 -0.9681  0.7153
  184EMC     H3 2009   3.402   2.877   2.023 -0.7204 -0.3780 -1.7662
  184EMC     C4 2010   3.360   3.105   1.627  0.0613  0.3453  0.7688
  184EMC     H4 2011   3.483   3.241   1.724 -0.0595  0.3308  0.6156
  184EMC     H5 2012   3.322   3.255   1.778 -1.5503  0.0106 -3.4764
  184EMC     H6 2013   3.350   3.181   1.549  3.0578  0.1563  0.1007
  184EMC     H7 2014   3.271   3.043   1.634  1.1524 -1.3592 -0.0262
  184EMC     H8 2015   3.440   3.035   1.606  1.3878  1.8603  0.5846
  185EMC     C1 2016   0.488   3.486   3.645  0.7784 -0.9524  1.3823
  185EMC     C2 2017   0.941   3.511   3.675  1.1268  0.4030 -0.0898
  185EMC     C3 2018   0.707   3.569   3.696  0.1127  0.1807 -0.7705
  185EMC     O1 2019   0.606   3.485   3.726  0.7090 -0.7557 -0.1017
  185EMC     O2 2020   0.810   3.481   3.725  0.2708  0.0034  0.1080
  185EMC     O3 2021   0.708   3.646   3.601 -0.0049 -0.4121  0.2989
  185EMC     H1 2022   0.403   3.542   3.683  0.9097  1.4821 -1.5015
  185EMC     H2 2023   0.462   3.383   3.619 -1.3594  0.0254 -0.8324
  185EMC     H3 2024   0.519   3.536   3.553 -1.3048 -0.4029  0.9226
  185EMC     C4 2025   1.034   3.390   3.701  0.7283  0.0328 -0.2826
  185EMC     H4 2026   0.995   3.595   3.719  2.4944 -0.7664  0.5338
  185EMC     H5 2027   0.930   3.517   3.566 -0.4393 -0.6146 -0.0202
  185EMC     H6 2028   1.128   3.407   3.650  0.8829 -1.3567 -0.4938
  185EMC     H7 2029   0.988   3.301   3.656 -0.8219  1.1309 -0.9781
  185EMC     H8 2030   1.048   3.375   3.808  0.3583  0.9749 -0.0961
  186EMC     C1 2031   1.857   3.577   3.640 -0.5111 -0.5473 -0.3926
  186EMC     C2 2032   2.021   3.284   3.913 -0.5114  0.0246 -0.0854
  186EMC     C3 2033   2.014   3.481   3.791 -0.3057 -0.3501 -0.0193
  186EMC     O1 2034   1.968   3.494   3.662  0.7272  0.7974 -0.0992
  186EMC     O2 2035   2.047   3.350   3.797  0.4064  0.8168 -0.3069
  186EMC     O3 2036   1.975   3.548   3.883 -0.1373 -0.3552 -0.3153
  186EMC     H1 2037   1.768   3.538   3.689 -1.1643  0.9260 -0.3564
  186EMC     H2 2038   1.834   3.580   3.534 -0.8659  1.7519 -0.3066
  186EMC     H3 2039   1.878   3.678   3.676 -1.5220 -0.0931 -1.0393
  186EMC     C4 2040   2.070   3.142   3.886 -0.3974  0.3343 -0.1283
  186EMC     H4 2041   1.915   3.285   3.942 -0.7637  1.4732 -0.9344
  186EMC     H5 2042   2.084   3.319   3.995 -0.8370 -1.7609  0.9737
  186EMC     H6 2043   2.167   3.139   3.837 -1.0950  0.6668 -1.5905
  186EMC     H7 2044   2.006   3.094   3.813  0.0607 -1.3736  0.5514
  186EMC     H8 2045   2.067   3.080   3.975 -2.2444  2.3944  1.3757
  187EMC     C1 2046   1.691   2.460   4.417 -0.1563 -0.5548 -0.2478
  187EMC     C2 2047   1.606   2.411   3.964  0.0509  0.5236  0.0214
  187EMC     C3 2048   1.661   2.487   4.187 -0.0900  0.1543  0.1476
  187EMC     O1 2049   1.731   2.440   4.283  0.0163 -0.2125 -0.0959
  187EMC     O2 2050   1.686   2.409   4.080 -0.5751  0.5200 -0.2214
  187EMC     O3 2051   1.564   2.560   4.189 -0.8929 -0.3692  0.3003
  187EMC     H1 2052   1.768   2.431   4.489  0.0177 -1.2486 -0.7045
  187EMC     H2 2053   1.598   2.406   4.436 -0.3228 -0.4189 -0.6835
  187EMC     H3 2054   1.660   2.562   4.441 -2.4431 -0.9513 -1.2237
  187EMC     C4 2055   1.658   2.309   3.861 -0.0947  0.3926 -0.7932
  187EMC     H4 2056   1.618   2.516   3.939 -2.9523  0.9918  0.1262
  187EMC     H5 2057   1.503   2.401   4.000 -0.0151 -1.7218 -0.6521
  187EMC     H6 2058   1.670   2.205   3.892 -1.1356  0.5703  0.2788
  187EMC     H7 2059   1.757   2.334   3.823 -0.6886  1.1612 -1.8797
  187EMC     H8 2060   1.594   2.304   3.773 -0.9283 -0.1983 -0.1708
  188EMC     C1 2061   0.952   0.115   0.070 -0.2872  0.3559  0.4630
  188EMC     C2 2062   0.801   4.290   4.454 -0.1968 -0.1096 -0.6882
  188EMC     C3 2063   0.946   4.466   4.379  0.0819  0.3427  0.5495
  188EMC     O1 2064   0.888   0.064   4.446 -0.2728 -1.0262 -0.6795
  188EMC     O2 2065   0.823   4.421   4.412 -0.6041 -0.6091 -0.2339
  188EMC     O3 2066   1.051   4.417   4.415  0.6362  0.1352  0.1052
  188EMC     H1 2067   1.042   0.176   0.057 -0.8618  1.3373  0.9441
  188EMC     H2 2068   0.979   0.037   0.142 -0.9784  1.1489  1.6259
  188EMC     H3 2069   0.871   0.174   0.113 -1.4403 -1.9534  1.6936
  188EMC     C4 2070   0.669   4.251   4.386  0.7221 -0.7821 -0.2136
  188EMC     H4 2071   0.797   4.277   0.066  0.5322  0.7783 -0.5388
  188EMC     H5 2072   0.872   4.215   4.419 -0.6507 -1.0389  0.3495
  188EMC     H6 2073   0.592   4.297   4.447  1.6633  0.1775  0.2673
  188EMC     H7 2074   0.658   4.144   4.368  2.7557 -0.8316 -1.5834
  188EMC     H8 2075   0.662   4.288   4.283 -0.8270 -1.5692 -0.4256
  189EMC     C1 2076   2.462   0.202   4.122 -0.2070 -0.2904 -0.0041
  189EMC     C2 2077   2.759   0.122   3.773 -0.0213  0.3024 -0.8034
  189EMC     C3 2078   2.586   0.085   3.961 -0.4198 -0.0078 -0.0830
  189EMC     O1 2079   2.474   0.150   3.991  0.1893 -0.8269  0.0189
  189EMC     O2 2080   2.632   0.146   3.843 -0.4752  0.4705 -0.1070
  189EMC     O3 2081   2.662   0.031   4.039 -0.0996 -0.0949 -0.1700
  189EMC     H1 2082   2.441   0.309   4.124  2.1107  0.2316  1.7430
  189EMC     H2 2083   2.557   0.195   4.176  0.9679 -2.5374 -2.1909
  189EMC     H3 2084   2.384   0.134   4.155 -0.2089  0.6841  2.2415
  189EMC     C4 2085   2.782   0.257   3.704  0.3686 -0.0645 -0.3243
  189EMC     H4 2086   2.736   0.038   3.707 -3.0834  0.6136 -0.2970
  189EMC     H5 2087   2.839   0.095   3.841  0.4915 -0.7255 -1.7852
  189EMC     H6 2088   2.702   0.278   3.634 -0.0241  3.7710  1.0277
  189EMC     H7 2089   2.874   0.246   3.647  1.5649 -1.7262  1.7883
  189EMC     H8 2090   2.782   0.339   3.776  0.3109  0.1616 -0.5834
  190EMC     C1 2091   3.140   0.737   2.958 -0.0795 -0.2847 -0.4801
  190EMC     C2 2092   2.820   0.810   2.712  0.8576 -0.2246  0.2243
  190EMC     C3 2093   3.019   0.679   2.754  0.5593 -0.4632 -0.5047
  190EMC     O1 2094   3.047   0.656   2.887  0.4315  0.2517 -0.4881
  190EMC     O2 2095   2.892   0.716   2.785  0.1978  0.5104 -0.6057
  190EMC     O3 2096   3.080   0.757   2.682 -0.0693 -0.2132  0.1917
  190EMC     H1 2097   3.097   0.837   2.958 -0.4004 -0.4212 -0.0456
  190EMC     H2 2098   3.241   0.742   2.915  0.4070  0.9322  0.7065
  190EMC     H3 2099   3.153   0.710   3.063 -1.9998  2.4643  0.5769
  190EMC     C4 2100   2.674   0.793   2.733  1.1158  0.0737 -0.1386
  190EMC     H4 2101   2.852   0.787   2.611  1.4914 -0.8785  0.5624
  190EMC     H5 2102   2.856   0.908   2.746  0.3567 -0.1558  0.5698
  190EMC     H6 2103   2.638   0.860   2.811 -0.2232 -1.1237  0.3240
  190EMC     H7 2104   2.650   0.691   2.764 -1.7301  0.1804 -1.6464
  190EMC     H8 2105   2.605   0.809   2.649 -1.0918  0.6132  1.6759
  191EMC     C1 2106   0.807   2.298   3.969  0.0248  0.1872 -0.3870
  191EMC     C2 2107   0.899   2.690   3.878 -0.2861  0.5207  0.3945
  191EMC     C3 2108   0.791   2.521   4.011 -0.4238  0.0625  0.4435
  191EMC     O1 2109   0.862   2.427   3.965  0.0897  0.7501  0.2195
  191EMC     O2 2110   0.866   2.631   4.006  0.2732 -0.4154  0.4823
  191EMC     O3 2111   0.700   2.513   4.089 -0.3684  0.1555  0.4765
  191EMC     H1 2112   0.815   2.255   3.869  0.0688 -0.6899 -0.0211
  191EMC     H2 2113   0.707   2.282   4.009  0.6792  0.8585  1.6301
  191EMC     H3 2114   0.864   2.237   4.039 -0.1567  0.0261 -0.3757
  191EMC     C4 2115   0.973   2.814   3.898  0.0610  0.2417 -0.1537
  191EMC     H4 2116   0.815   2.703   3.810 -0.3706 -1.3042  0.1069
  191EMC     H5 2117   0.963   2.617   3.828 -0.3605  0.5267  0.2902
  191EMC     H6 2118   1.065   2.798   3.954 -0.0998 -1.3078 -0.2875
  191EMC     H7 2119   0.914   2.885   3.957  0.2047 -0.2054  0.5362
  191EMC     H8 2120   0.991   2.871   3.807 -2.6329  0.2490 -0.7654
  192EMC     C1 2121   1.110   0.246   0.381 -0.1901  0.1012 -0.3433
  192EMC     C2 2122   0.895   4.368   0.497 -0.0351 -0.2023  0.6583
  192EMC     C3 2123   0.973   0.110   0.511  0.7061  0.4255  0.4274
  192EMC     O1 2124   0.990   0.166   0.391  0.4107 -0.2133  0.6847
  192EMC     O2 2125   0.964   4.485   0.447  0.1705 -0.1634  0.1768
  192EMC     O3 2126   0.880   0.140   0.587  0.2009  0.4915 -0.1036
  192EMC     H1 2127   1.104   0.323   0.458 -2.6603  0.7328 -1.0767
  192EMC     H2 2128   1.093   0.286   0.281 -3.4600 -0.1837 -0.0050
  192EMC     H3 2129   1.210   0.205   0.399  0.0370  0.5627 -0.5317
  192EMC     C4 2130   0.948   4.252   0.410  0.2063  0.0908  0.3330
  192EMC     H4 2131   0.787   4.381   0.495 -0.1013 -0.7949  0.2793
  192EMC     H5 2132   0.909   4.365   0.605 -0.0168  0.6227  0.6894
  192EMC     H6 2133   1.056   4.241   0.419  0.1917 -1.1886 -0.8262
  192EMC     H7 2134   0.932   4.259   0.303 -0.3380  0.3195  0.4247
  192EMC     H8 2135   0.896   4.165   0.449  2.3250 -1.9176 -1.0852
  193EMC     C1 2136   4.082   3.715   2.861 -0.0836 -0.3491 -0.5692
  193EMC     C2 2137   3.903   3.439   2.596  0.5369  0.1360  0.1341
  193EMC     C3 2138   4.090   3.557   2.686  0.0428  0.0436  0.0390
  193EMC     O1 2139   4.087   3.584   2.806  0.6668  0.0751 -0.5857
  193EMC     O2 2140   3.994   3.456   2.703  0.0329 -0.1032  0.1112
  193EMC     O3 2141   4.093   3.637   2.594 -0.2177 -0.0057  0.1141
  193EMC     H1 2142   4.039   3.712   2.962  1.6100 -0.5527  0.1780
  193EMC     H2 2143   3.999   3.763   2.810 -1.9122 -1.4157  1.2504
  193EMC     H3 2144   4.174   3.772   2.855  1.2293 -2.3050 -0.1238
  193EMC     C4 2145   3.850   3.297   2.618 -0.4232 -0.1881  0.5863
  193EMC     H4 2146   3.952   3.441   2.499 -1.7950 -1.1687 -1.1534
  193EMC     H5 2147   3.821   3.510   2.590  0.1324 -0.2752  0.6264
  193EMC     H6 2148   3.806   3.268   2.522  0.8845 -1.3071  0.3005
  193EMC     H7 2149   3.770   3.278   2.689  1.1337 -0.8729  2.2240
  193EMC     H8 2150   3.932   3.228   2.634 -0.1705  0.3396  1.6822
  194EMC     C1 2151   2.767   3.167   2.370 -0.0514  0.3584  0.5213
  194EMC     C2 2152   3.024   3.257   2.673  0.0048 -0.6537  0.3977
  194EMC     C3 2153   2.910   3.337   2.480  0.5013  0.5826 -0.1224
  194EMC     O1 2154   2.895   3.225   2.408 -0.3742  0.9070 -0.6203
  194EMC     O2 2155   3.024   3.294   2.534 -0.5805 -0.4475 -0.2057
  194EMC     O3 2156   2.813   3.387   2.533  0.4228 -0.8945  0.1834
  194EMC     H1 2157   2.678   3.217   2.409 -1.6995 -0.5708 -1.8358
  194EMC     H2 2158   2.761   3.066   2.412  0.1811  0.0242 -0.2327
  194EMC     H3 2159   2.741   3.163   2.264 -1.1764  1.5249  0.7289
  194EMC     C4 2160   3.149   3.178   2.712 -1.5155  0.0318 -0.6816
  194EMC     H4 2161   2.934   3.206   2.707 -3.7746  3.7231 -1.9046
  194EMC     H5 2162   3.033   3.351   2.728  1.3703 -0.1336 -0.6410
  194EMC     H6 2163   3.248   3.211   2.678 -1.2761 -0.3471 -0.3659
  194EMC     H7 2164   3.139   3.079   2.666 -0.0962  0.3478 -1.7760
  194EMC     H8 2165   3.147   3.182   2.820  1.5246  3.2905 -0.5282
  195EMC     C1 2166   1.949   0.367   1.609  0.2888 -1.3269 -1.0482
  195EMC     C2 2167   1.983   0.109   1.881  0.1766  0.5671 -0.0799
  195EMC     C3 2168   2.102   0.286   1.760  0.2528  0.6003 -0.2882
  195EMC     O1 2169   1.994   0.356   1.744  0.4979 -0.8123  0.5752
  195EMC     O2 2170   2.025   0.244   1.865  0.0159  0.4453 -0.0139
  195EMC     O3 2171   2.154   0.210   1.678 -0.2194 -0.0112 -0.1440
  195EMC     H1 2172   1.936   0.278   1.548 -0.5870  0.0628 -3.0135
  195EMC     H2 2173   2.021   0.439   1.570 -0.0460  1.1077  2.3685
  195EMC     H3 2174   1.851   0.415   1.618  0.4178 -1.5093  3.8000
  195EMC     C4 2175   2.083   0.019   1.938 -0.2118  0.0947 -0.6549
  195EMC     H4 2176   1.944   0.084   1.782 -2.0470  0.8816  0.6435
  195EMC     H5 2177   1.894   0.099   1.943 -1.0025  0.5331 -1.7070
  195EMC     H6 2178   2.174   0.019   1.879  1.5053 -2.0053  1.7508
  195EMC     H7 2179   2.058   4.410   1.957 -0.1332  0.1543 -0.1960
  195EMC     H8 2180   2.103   0.055   2.039  0.5992  0.0168 -0.7805
  196EMC     C1 2181   3.441   4.485   4.466  0.0214  0.9797  0.1773
  196EMC     C2 2182   3.252   0.092   4.112  0.1809  0.9035  0.8725
  196EMC     C3 2183   3.385   0.149   4.302 -0.4876  0.3482 -0.8613
  196EMC     O1 2184   3.440   0.027   4.332 -0.1354  0.2236 -0.0898
  196EMC     O2 2185   3.373   0.086   4.180  0.3470 -0.2741  0.5858
  196EMC     O3 2186   3.294   0.204   4.368  0.6145  0.2327 -0.3317
  196EMC     H1 2187   3.507   4.399   4.476 -1.8716 -0.5636  0.0578
  196EMC     H2 2188   3.344   4.456   0.009  0.6818  0.4566  1.4824
  196EMC     H3 2189   3.466   0.067   0.042  0.0122  2.0056 -0.8972
  196EMC     C4 2190   3.244   0.009   3.977  0.1473 -0.2834 -0.6370
  196EMC     H4 2191   3.237   0.197   4.089 -4.2555  0.1724 -0.6287
  196EMC     H5 2192   3.164   0.059   4.167 -1.0557  0.9735 -0.9702
  196EMC     H6 2193   3.329   0.034   3.913  1.4686  1.3526  1.6315
  196EMC     H7 2194   3.149   0.017   3.925 -1.2874 -0.2366  1.8567
  196EMC     H8 2195   3.254   4.400   4.006  0.1486 -0.4133 -1.0937
  197EMC     C1 2196   1.238   4.410   0.243  0.5390  0.6776  0.0832
  197EMC     C2 2197   1.548   0.122   0.166 -0.0161  0.5361 -0.2670
  197EMC     C3 2198   1.358   0.022   0.060  0.4823 -0.0042 -0.2810
  197EMC     O1 2199   1.268   0.031   0.170 -0.3162  0.7416 -0.2551
  197EMC     O2 2200   1.435   0.129   0.079  0.1226 -0.7572  0.1120
  197EMC     O3 2201   1.412   4.411   0.028 -0.0211 -1.0534 -0.0956
  197EMC     H1 2202   1.141   4.366   0.219  1.1967 -0.2890 -0.9473
  197EMC     H2 2203   1.245   4.430   0.349  0.9663  1.9547 -0.1716
  197EMC     H3 2204   1.302   4.325   0.218 -0.5535  0.6284 -3.0389
  197EMC     C4 2205   1.633   0.255   0.154  0.1269  0.2491  0.3526
  197EMC     H4 2206   1.606   0.035   0.136 -2.0381 -0.4263 -1.6375
  197EMC     H5 2207   1.525   0.123   0.272  2.4615  2.2095  0.3493
  197EMC     H6 2208   1.550   0.324   0.170 -0.8446 -0.9423  0.5713
  197EMC     H7 2209   1.678   0.275   0.056 -2.2079  0.4247 -0.7506
  197EMC     H8 2210   1.704   0.272   0.235  0.3823  1.5840 -0.1313
  198EMC     C1 2211   1.879   4.282   3.565 -0.3464  0.2333 -0.3285
  198EMC     C2 2212   2.297   4.412   3.631  0.0872  0.5043  0.3232
  198EMC     C3 2213   2.098   4.308   3.684  0.0665 -0.0422 -0.1426
  198EMC     O1 2214   1.980   4.358   3.636  0.0568  0.7920 -0.2742
  198EMC     O2 2215   2.153   4.419   3.636 -0.2436 -0.4649 -0.4066
  198EMC     O3 2216   2.147   4.202   3.650  0.0883  0.0785 -0.7269
  198EMC     H1 2217   1.827   4.208   3.626 -2.8318  2.2970  0.2191
  198EMC     H2 2218   1.914   4.222   3.481 -0.5061 -0.8678  0.3598
  198EMC     H3 2219   1.803   4.344   3.517 -0.2888  0.5241 -0.0401
  198EMC     C4 2220   2.350   0.046   3.562  0.1840  0.4968  0.3249
  198EMC     H4 2221   2.340   4.319   3.594  0.4274  0.7031  0.2091
  198EMC     H5 2222   2.326   4.422   3.736 -1.9845 -1.7559  1.2089
  198EMC     H6 2223   2.457   0.045   3.585  0.7700  0.3105 -2.1448
  198EMC     H7 2224   2.300   0.134   3.604 -1.6471 -0.0922 -0.5492
  198EMC     H8 2225   2.333   0.047   3.455  0.8282 -1.8655  0.1385
  199EMC     C1 2226   3.577   2.629   3.028 -0.2060 -0.5971  1.2740
  199EMC     C2 2227   3.266   2.563   3.244  0.1610  0.9269  0.1019
  199EMC     C3 2228   3.437   2.698   3.214 -0.1387 -0.7026  1.2668
  199EMC     O1 2229   3.525   2.611   3.160  0.1223  0.0355  0.7437
  199EMC     O2 2230   3.402   2.577   3.244  0.1579 -0.0258  0.3225
  199EMC     O3 2231   3.380   2.781   3.143 -0.0492  0.7510 -0.0338
  199EMC     H1 2232   3.678   2.588   3.024 -0.9579 -2.9074  3.1569
  199EMC     H2 2233   3.577   2.727   2.982  0.8511 -1.7582 -1.3832
  199EMC     H3 2234   3.518   2.569   2.959  0.6152 -2.6706  2.2837
  199EMC     C4 2235   3.246   2.432   3.318  0.2008 -0.1982  0.0381
  199EMC     H4 2236   3.225   2.578   3.144  2.2771  0.5679 -0.8703
  199EMC     H5 2237   3.227   2.649   3.298  3.0906  1.1249  2.1199
  199EMC     H6 2238   3.316   2.353   3.289 -2.0956 -2.1284 -0.5825
  199EMC     H7 2239   3.143   2.400   3.305 -0.0273  0.2263  0.7394
  199EMC     H8 2240   3.266   2.443   3.425  0.6818  1.5500 -0.2078
  200EMC     C1 2241   0.686   0.842   1.523  0.1303  0.0333  0.3103
  200EMC     C2 2242   0.374   0.911   1.291  0.2756  0.3448  0.5658
  200EMC     C3 2243   0.450   0.810   1.495 -0.8598 -0.0300  0.2249
  200EMC     O1 2244   0.554   0.882   1.518  0.2948 -0.0061  0.0411
  200EMC     O2 2245   0.408   0.915   1.427 -0.1432  0.0973  0.0241
  200EMC     O3 2246   0.454   0.687   1.459  0.3056  0.5711  0.0577
  200EMC     H1 2247   0.748   0.917   1.473  1.0237  0.2888  1.7552
  200EMC     H2 2248   0.697   0.749   1.467 -0.4167  0.7240 -1.0018
  200EMC     H3 2249   0.717   0.837   1.627  1.5805 -1.0929 -0.1409
  200EMC     C4 2250   0.219   0.937   1.306 -0.9017 -0.4901 -0.1046
  200EMC     H4 2251   0.393   0.810   1.252 -1.0610  0.7563 -1.2685
  200EMC     H5 2252   0.428   0.978   1.224  0.3228 -0.4650 -0.2367
  200EMC     H6 2253   0.186   1.028   1.355 -1.5153 -0.5625 -0.3709
  200EMC     H7 2254   0.167   0.851   1.349 -1.6963 -0.7784 -1.5903
  200EMC     H8 2255   0.167   0.936   1.210 -1.1032  0.9146 -0.0224
  201EMC     C1 2256   0.529   2.435   4.400  0.0418 -0.0093 -0.5289
  201EMC     C2 2257   0.528   2.083   4.383 -0.5775 -0.1322 -0.0579
  201EMC     C3 2258   0.644   2.252   4.486  0.7506  0.5310  0.9933
  201EMC     O1 2259   0.644   2.350   4.396 -0.4064  0.6042  0.0350
  201EMC     O2 2260   0.634   2.169   4.390  0.1656 -0.7687  0.5082
  201EMC     O3 2261   0.569   2.254   0.084  0.2194 -0.2864  0.3740
  201EMC     H1 2262   0.535   2.491   4.493  2.3208 -1.0835  0.0562
  201EMC     H2 2263   0.425   2.402   4.397 -0.5627  1.5438  1.4075
  201EMC     H3 2264   0.523   2.504   4.316 -0.9032  0.2125 -0.2913
  201EMC     C4 2265   0.490   2.056   4.239  0.4935 -0.7217 -0.0222
  201EMC     H4 2266   0.439   2.127   4.427 -0.5682  3.0167 -2.7640
  201EMC     H5 2267   0.560   1.999   4.445 -0.8161 -0.5208 -0.4463
  201EMC     H6 2268   0.582   2.025   4.189  2.0151  2.1473  0.7858
  201EMC     H7 2269   0.465   2.152   4.194  0.0341 -0.4677  0.7494
  201EMC     H8 2270   0.419   1.973   4.242  1.8594 -1.9728 -0.8492
  202EMC     C1 2271   1.432   4.036   1.017  0.2886 -0.5062  0.0684
  202EMC     C2 2272   1.064   4.244   1.246 -0.0768 -0.0661 -1.2681
  202EMC     C3 2273   1.230   4.121   1.106  0.0005  0.5483  0.0506
  202EMC     O1 2274   1.355   4.146   1.067  0.2118  0.3143 -0.3134
  202EMC     O2 2275   1.185   4.239   1.163 -0.1402  0.0261 -0.1667
  202EMC     O3 2276   1.177   4.010   1.091 -0.1302  0.1438  0.2831
  202EMC     H1 2277   1.378   4.000   0.930  1.5047 -0.8056 -0.5773
  202EMC     H2 2278   1.442   3.946   1.078 -0.1514 -0.4178  0.2767
  202EMC     H3 2279   1.533   4.073   0.998 -0.4575  1.2785 -0.6058
  202EMC     C4 2280   1.089   4.349   1.362 -0.7323  0.4025  0.3645
  202EMC     H4 2281   1.041   4.150   1.296  0.3114  1.2443  1.6408
  202EMC     H5 2282   0.986   4.281   1.181  1.5495  2.8116 -1.7598
  202EMC     H6 2283   1.118   4.438   1.306 -0.0393 -0.6232 -0.9961
  202EMC     H7 2284   1.174   4.324   1.425 -1.9169 -2.2267  1.0557
  202EMC     H8 2285   1.006   4.366   1.430  0.1561  2.0000  1.1283
  203EMC     C1 2286   2.729   3.500   0.513  0.9852  0.2363  0.1860
  203EMC     C2 2287   2.663   3.355   0.210  0.2312  0.2610  0.0632
  203EMC     C3 2288   2.563   3.530   0.343 -0.2614 -0.3064  0.5244
  203EMC     O1 2289   2.690   3.536   0.378 -1.3287 -0.5048  0.0644
  203EMC     O2 2290   2.663   3.487   0.243 -0.2473 -0.6196 -0.5106
  203EMC     O3 2291   2.484   3.457   0.399  0.4131 -0.1497  0.5023
  203EMC     H1 2292   2.824   3.549   0.530  0.1944  1.7763  0.3844
  203EMC     H2 2293   2.731   3.392   0.523  2.7743  0.4040  2.3043
  203EMC     H3 2294   2.655   3.530   0.588  0.6532 -0.3048  0.0836
  203EMC     C4 2295   2.761   3.323   0.088  1.0211 -1.0505  0.4987
  203EMC     H4 2296   2.565   3.313   0.186  0.0140  1.1983 -0.7270
  203EMC     H5 2297   2.701   3.299   0.296 -0.7034 -2.0708 -0.9547
  203EMC     H6 2298   2.863   3.353   0.110  0.0375  2.4219  0.8867
  203EMC     H7 2299   2.712   3.360   4.494  0.0527  0.3425  1.5673
  203EMC     H8 2300   2.760   3.214   0.089 -0.9653 -1.0700  0.4664
  204EMC     C1 2301   3.731   0.676   0.343  0.5061 -0.4589  0.8791
  204EMC     C2 2302   3.385   0.481   0.078  0.0701 -0.3624  0.4470
  204EMC     C3 2303   3.562   0.563   0.218  0.2213  0.4669  0.0455
  204EMC     O1 2304   3.654   0.652   0.229 -0.0984 -0.1063  0.7697
  204EMC     O2 2305   3.498   0.566   0.102  0.5828  0.1435  0.2623
  204EMC     O3 2306   3.533   0.490   0.312  0.2944  0.1335  0.7579
  204EMC     H1 2307   3.819   0.612   0.348  0.4406 -0.5092  1.6091
  204EMC     H2 2308   3.670   0.665   0.433  0.8274  0.9505  1.2964
  204EMC     H3 2309   3.771   0.777   0.344  1.3602 -0.7908  1.3187
  204EMC     C4 2310   3.320   0.529   4.441 -0.0615 -0.6756 -0.6358
  204EMC     H4 2311   3.316   0.495   0.161  0.1304 -0.5440  0.5292
  204EMC     H5 2312   3.417   0.377   0.073  1.4828  0.0735 -0.2681
  204EMC     H6 2313   3.384   0.578   4.368 -0.2036  0.8559  0.2417
  204EMC     H7 2314   3.256   0.615   4.459  1.7427  0.7290 -0.5658
  204EMC     H8 2315   3.262   0.457   4.384 -1.8677  0.6233 -0.4993
  205EMC     C1 2316   0.669   2.527   0.259  0.5332  0.2223  0.4862
  205EMC     C2 2317   1.088   2.523   0.255 -0.7053  0.2202  0.9543
  205EMC     C3 2318   0.878   2.432   0.315  0.0218 -0.1923 -0.2653
  205EMC     O1 2319   0.775   2.517   0.345 -0.2749 -0.1768  0.1358
  205EMC     O2 2320   0.969   2.526   0.341  0.2133  0.5449 -0.3674
  205EMC     O3 2321   0.881   2.357   0.218 -0.3245 -0.0254  0.0970
  205EMC     H1 2322   0.677   2.492   0.156 -0.0045  1.5368 -0.0119
  205EMC     H2 2323   0.625   2.626   0.250  0.1338  0.1246  1.2906
  205EMC     H3 2324   0.581   2.467   0.284  0.1920  0.8154  0.7361
  205EMC     C4 2325   1.143   2.670   0.249 -0.0226  0.7130  0.0534
  205EMC     H4 2326   1.070   2.500   0.150  1.2201  2.9905 -0.0954
  205EMC     H5 2327   1.170   2.464   0.296 -0.0347 -1.3334 -2.3381
  205EMC     H6 2328   1.231   2.686   0.187  0.5747 -1.7532  0.1610
  205EMC     H7 2329   1.157   2.707   0.350 -1.0727  0.9307  0.1331
  205EMC     H8 2330   1.070   2.745   0.218  0.2250  0.3725 -1.4664
  206EMC     C1 2331   4.154   3.196   0.172  0.2210 -0.1912 -0.0165
  206EMC     C2 2332   4.331   3.089   4.371  0.3456 -0.5976  0.0887
  206EMC     C3 2333   4.352   3.083   0.102 -0.3113 -0.1128  0.3188
  206EMC     O1 2334   4.287   3.211   0.122  0.3773  0.4541 -0.2452
  206EMC     O2 2335   4.354   3.158   4.486 -0.0587  0.3281 -0.4931
  206EMC     O3 2336   4.304   2.966   0.109  0.2598  0.2716  0.2549
  206EMC     H1 2337   4.090   3.284   0.163  0.2781 -0.3535 -2.7578
  206EMC     H2 2338   4.154   3.174   0.279 -2.2306  1.2326  0.3452
  206EMC     H3 2339   4.107   3.107   0.132  1.2796 -1.5174  1.5600
  206EMC     C4 2340   4.193   3.117   4.317  0.2455 -0.4846 -0.3946
  206EMC     H4 2341   4.364   2.986   4.367  1.9299 -0.1325  0.2987
  206EMC     H5 2342   4.386   3.140   4.291 -1.8992  2.0871  0.0761
  206EMC     H6 2343   4.195   3.121   4.208 -1.4625  3.0406 -0.4209
  206EMC     H7 2344   4.155   3.210   4.358 -0.9137 -2.1021  2.4217
  206EMC     H8 2345   4.118   3.051   4.359 -1.7536  2.3176  0.7154
  207EMC     C1 2346   4.015   0.297   0.837 -0.0698  0.3197  0.6802
  207EMC     C2 2347   4.120   4.420   0.803  0.2554  0.3996 -0.5373
  207EMC     C3 2348   3.965   0.078   0.905  0.2974  0.1842  0.8440
  207EMC     O1 2349   4.048   0.185   0.915  0.1182  0.3384 -0.5388
  207EMC     O2 2350   4.080   0.001   0.909 -0.6563 -0.3631  0.1577
  207EMC     O3 2351   3.874   0.065   0.818 -0.7585  0.5609 -0.3599
  207EMC     H1 2352   4.042   0.284   0.732  0.4276 -1.6053  0.9922
  207EMC     H2 2353   4.083   0.378   0.864 -0.2903  0.0962  1.9620
  207EMC     H3 2354   3.913   0.334   0.826 -1.1619 -2.6422 -0.1809
  207EMC     C4 2355   4.258   4.363   0.846  0.8312 -0.4601  0.2787
  207EMC     H4 2356   4.115   4.472   0.708 -0.1635 -1.0807 -1.3504
  207EMC     H5 2357   4.050   4.337   0.801  0.3089  0.2550  1.4620
  207EMC     H6 2358   4.332   4.438   0.873  0.5822 -0.3662  0.7006
  207EMC     H7 2359   4.303   4.309   0.762  0.0892 -1.2970  0.4053
  207EMC     H8 2360   4.248   4.301   0.935 -1.4366 -2.5768 -1.3085
  208EMC     C1 2361   3.385   3.852   3.802  0.0761  0.2044 -0.3964
  208EMC     C2 2362   3.122   3.841   4.150 -0.6646  0.3604  0.2915
  208EMC     C3 2363   3.244   3.942   3.981  0.2467 -0.0431  0.1577
  208EMC     O1 2364   3.257   3.855   3.875  0.4602 -0.7384  0.8783
  208EMC     O2 2365   3.147   3.860   4.017 -0.0974  0.3149 -0.3870
  208EMC     O3 2366   3.339   3.977   4.062  0.0116  0.1183  0.0603
  208EMC     H1 2367   3.358   3.797   3.712  0.4351  0.3653 -0.6035
  208EMC     H2 2368   3.468   3.803   3.853  0.2743  2.0377  1.1487
  208EMC     H3 2369   3.399   3.950   3.756 -1.0551 -0.7515 -2.9563
  208EMC     C4 2370   2.973   3.840   4.166  0.2465 -0.0656  0.0383
  208EMC     H4 2371   3.160   3.921   4.214  0.3147  1.4235 -1.5450
  208EMC     H5 2372   3.157   3.746   4.190  1.9701  0.7209 -0.9139
  208EMC     H6 2373   2.937   3.738   4.176 -1.0313  0.3400 -0.2514
  208EMC     H7 2374   2.931   3.891   4.079 -0.1463 -1.4493 -0.6022
  208EMC     H8 2375   2.927   3.875   4.258 -3.7039 -3.5535 -0.2944
  209EMC     C1 2376   4.476   2.804   0.610  0.5370  0.0258 -0.8577
  209EMC     C2 2377   0.197   2.774   0.213  0.0014  0.7125  0.0527
  209EMC     C3 2378   0.075   2.857   0.396 -0.3588  0.6906 -0.5192
  209EMC     O1 2379   0.079   2.857   0.535  0.0560  0.1376  0.0300
  209EMC     O2 2380   0.179   2.782   0.350  0.5601 -0.2918 -0.1212
  209EMC     O3 2381   4.468   2.865   0.332  0.0550  0.0827  0.4496
  209EMC     H1 2382   4.494   2.835   0.713  0.6606 -0.5233 -0.7095
  209EMC     H2 2383   4.468   2.695   0.605  0.2733 -0.0098  0.0749
  209EMC     H3 2384   4.377   2.836   0.578 -0.8364 -1.4919  1.4898
  209EMC     C4 2385   0.284   2.648   0.176  0.1944 -0.5637 -0.5309
  209EMC     H4 2386   0.248   2.867   0.185  0.3713  0.4503 -0.1482
  209EMC     H5 2387   0.104   2.778   0.156 -0.6604  1.0322  1.1079
  209EMC     H6 2388   0.227   2.559   0.201  0.8278 -1.0413 -0.7917
  209EMC     H7 2389   0.376   2.646   0.234 -1.4213  1.4551  2.4298
  209EMC     H8 2390   0.296   2.650   0.068  0.9136 -0.2196 -0.4503
  210EMC     C1 2391   3.559   3.448   2.357 -0.0609  0.0843  1.5461
  210EMC     C2 2392   3.199   3.462   2.214  0.1378  0.3364 -0.3685
  210EMC     C3 2393   3.337   3.431   2.406  0.2919 -0.4229 -0.2292
  210EMC     O1 2394   3.462   3.409   2.450 -0.1635  1.1792  0.2252
  210EMC     O2 2395   3.293   3.385   2.290  0.2403 -0.0611  0.2058
  210EMC     O3 2396   3.269   3.505   2.475  0.5243  0.0235 -0.0923
  210EMC     H1 2397   3.663   3.439   2.386  0.5473 -1.7667 -0.8536
  210EMC     H2 2398   3.545   3.547   2.312 -0.5645 -1.2051 -1.3507
  210EMC     H3 2399   3.548   3.382   2.271 -0.2886  2.2948 -0.2172
  210EMC     C4 2400   3.224   3.437   2.066 -0.2164  0.8353 -0.3032
  210EMC     H4 2401   3.181   3.568   2.233  2.0265  0.7051 -0.5001
  210EMC     H5 2402   3.102   3.413   2.225  0.5941 -0.5448 -0.1680
  210EMC     H6 2403   3.142   3.464   2.001  0.5615 -0.4117 -1.8552
  210EMC     H7 2404   3.238   3.331   2.043  1.3175  1.2219 -1.2812
  210EMC     H8 2405   3.308   3.488   2.018  0.0166  2.0258  1.2596
  211EMC     C1 2406   2.609   1.534   1.478  0.1747 -0.1676  0.2662
  211EMC     C2 2407   2.593   1.974   1.306  0.1992  0.9959 -0.3131
  211EMC     C3 2408   2.580   1.766   1.402  0.2830  0.7402  0.4161
  211EMC     O1 2409   2.607   1.635   1.375 -0.0101 -0.0909  0.4183
  211EMC     O2 2410   2.607   1.835   1.294 -0.4645 -0.1888  0.1160
  211EMC     O3 2411   2.542   1.807   1.514  0.1031  0.1890 -0.6483
  211EMC     H1 2412   2.543   1.553   1.562  0.6717  0.1184  0.5969
  211EMC     H2 2413   2.716   1.532   1.501  0.9809 -2.0607 -3.0522
  211EMC     H3 2414   2.580   1.431   1.456 -1.7519 -0.0556  1.9859
  211EMC     C4 2415   2.557   2.053   1.185 -0.3841  0.0376 -0.0400
  211EMC     H4 2416   2.690   1.999   1.350  0.6406  0.9844 -1.2678
  211EMC     H5 2417   2.520   2.000   1.383 -0.2418  0.0323 -0.3884
  211EMC     H6 2418   2.642   2.075   1.119 -0.4939 -1.4628 -0.7440
  211EMC     H7 2419   2.532   2.152   1.221  1.3947  0.8363 -0.8539
  211EMC     H8 2420   2.465   2.021   1.137 -1.3445 -1.1536  2.4244
  212EMC     C1 2421   4.091   4.017   1.235  0.0643 -0.5325 -0.2838
  212EMC     C2 2422   4.034   3.855   1.545  0.2847 -0.9662 -0.5132
  212EMC     C3 2423   3.927   3.863   1.326 -0.2192  0.0615  1.0535
  212EMC     O1 2424   3.963   3.987   1.289 -0.0909 -0.2001  0.2301
  212EMC     O2 2425   3.946   3.918   1.453 -0.6278  0.4435  0.2848
  212EMC     O3 2426   3.990   3.763   1.286  0.0633  0.2982 -0.3259
  212EMC     H1 2427   4.168   3.970   1.297  0.4042  0.2444 -0.1010
  212EMC     H2 2428   4.128   4.120   1.227 -1.6708  0.2216  0.8124
  212EMC     H3 2429   4.111   3.969   1.139 -2.3062 -0.4747 -0.8629
  212EMC     C4 2430   4.132   3.958   1.605 -0.1151  0.6294 -0.9286
  212EMC     H4 2431   4.096   3.783   1.491  1.3859  0.1389 -0.7854
  212EMC     H5 2432   3.973   3.805   1.620 -1.2652  1.7825  0.1757
  212EMC     H6 2433   4.096   4.060   1.588 -0.7842  0.4198 -0.7907
  212EMC     H7 2434   4.224   3.948   1.547 -0.2343 -0.3284 -0.9596
  212EMC     H8 2435   4.152   3.947   1.712 -1.6020  0.9526 -0.5946
  213EMC     C1 2436   0.959   2.009   0.012  1.0687 -0.5086  0.5517
  213EMC     C2 2437   0.791   1.878   0.418 -0.7196 -0.4683 -0.6652
  213EMC     C3 2438   0.854   1.990   0.221 -0.4504 -0.8987  0.5234
  213EMC     O1 2439   0.957   2.022   0.154 -0.5531  0.3070  0.3619
  213EMC     O2 2440   0.886   1.950   0.343 -0.6543 -0.3657 -0.1462
  213EMC     O3 2441   0.752   1.947   0.165  0.2840  0.7437  0.0606
  213EMC     H1 2442   0.904   2.096   4.470 -0.1727 -0.5338  2.1791
  213EMC     H2 2443   0.910   1.916   4.480  0.6358  0.4161 -2.1239
  213EMC     H3 2444   1.053   2.015   4.454 -0.2020 -1.1792 -1.9129
  213EMC     C4 2445   0.860   1.821   0.534  0.4826  0.3125  0.4552
  213EMC     H4 2446   0.764   1.802   0.344 -1.1960 -0.9091 -0.0463
  213EMC     H5 2447   0.707   1.944   0.439 -2.1255 -1.2263 -3.3613
  213EMC     H6 2448   0.901   1.894   0.603  1.6204 -2.0819  2.4889
  213EMC     H7 2449   0.948   1.762   0.508 -0.1923 -0.3985 -0.2933
  213EMC     H8 2450   0.800   1.753   0.595  0.8202 -0.2991  0.1147
  214EMC     C1 2451   0.105   1.704   0.117  0.3611 -0.5916  0.2792
  214EMC     C2 2452   0.430   1.969   0.205 -0.1711  0.1263 -0.0635
  214EMC     C3 2453   0.235   1.902   0.077 -0.1240  0.2332 -0.1188
  214EMC     O1 2454   0.143   1.836   0.150 -0.4197 -0.0671  0.1562
  214EMC     O2 2455   0.286   1.948   0.190 -0.4864  0.3861 -0.0776
  214EMC     O3 2456   0.308   1.854   4.490 -0.7840  0.5786  0.4567
  214EMC     H1 2457   4.494   1.696   0.135  0.5437 -0.5784  1.4733
  214EMC     H2 2458   0.150   1.654   0.203  0.5884 -1.1302 -0.1481
  214EMC     H3 2459   0.136   1.658   0.023 -0.4282 -1.7990  0.5857
  214EMC     C4 2460   0.475   2.054   0.328  0.0523  0.4216 -0.1835
  214EMC     H4 2461   0.447   2.041   0.125 -0.8534  0.3856  0.0120
  214EMC     H5 2462   0.497   1.885   0.191  0.4404  0.2701  1.7351
  214EMC     H6 2463   0.422   2.149   0.327  0.9725  0.9633  0.3372
  214EMC     H7 2464   0.580   2.083   0.318  0.9838 -2.6747 -0.5488
  214EMC     H8 2465   0.470   2.006   0.426  0.1928  0.6270 -0.0750
  215EMC     C1 2466   2.926   1.759   2.218 -0.1064 -0.4871  0.4229
  215EMC     C2 2467   3.333   1.576   2.192 -0.0519  0.5042  0.2945
  215EMC     C3 2468   3.089   1.616   2.127 -0.5638 -0.6877  0.4318
  215EMC     O1 2469   3.059   1.742   2.170 -0.4410 -0.4265 -0.4058
  215EMC     O2 2470   3.216   1.661   2.180 -0.3096 -0.1331 -0.3741
  215EMC     O3 2471   3.036   1.511   2.160 -0.3807  0.6175  0.1036
  215EMC     H1 2472   2.932   1.689   2.301 -0.1780 -1.5510 -0.4455
  215EMC     H2 2473   2.856   1.710   2.151  2.0985 -1.2699 -1.4560
  215EMC     H3 2474   2.900   1.857   2.257  1.8030 -0.2423  1.2000
  215EMC     C4 2475   3.446   1.641   2.274  0.5486 -0.1588  0.6145
  215EMC     H4 2476   3.374   1.559   2.093  1.7735 -2.4854  1.4388
  215EMC     H5 2477   3.305   1.478   2.229 -2.7076  0.7529 -0.8720
  215EMC     H6 2478   3.482   1.739   2.241  0.6407 -0.3669  0.0869
  215EMC     H7 2479   3.535   1.578   2.277  0.5360 -0.6603 -3.3200
  215EMC     H8 2480   3.405   1.674   2.369 -2.6878 -0.2233 -0.6444
  216EMC     C1 2481   1.793   2.250   0.918 -0.9973  0.1471  0.1754
  216EMC     C2 2482   1.507   2.429   1.137  0.8594 -0.4580  0.7743
  216EMC     C3 2483   1.671   2.260   1.121  0.1505  0.0689  0.5717
  216EMC     O1 2484   1.777   2.300   1.049 -0.3314 -0.1766  0.3289
  216EMC     O2 2485   1.642   2.389   1.145  0.2191  0.6027 -0.1646
  216EMC     O3 2486   1.593   2.172   1.083 -0.3418  0.1362 -0.4357
  216EMC     H1 2487   1.718   2.292   0.851 -0.1935  0.1099 -0.7599
  216EMC     H2 2488   1.818   2.144   0.917  4.0319  1.1038  0.0115
  216EMC     H3 2489   1.894   2.265   0.881 -0.8920 -3.6199 -1.5207
  216EMC     C4 2490   1.495   2.581   1.170 -1.2299 -0.3205 -0.1969
  216EMC     H4 2491   1.427   2.383   1.195 -1.5516  1.9708 -0.3838
  216EMC     H5 2492   1.468   2.416   1.036 -0.9371 -1.6584  1.5671
  216EMC     H6 2493   1.536   2.602   1.269 -1.5093 -0.7144  0.0049
  216EMC     H7 2494   1.390   2.611   1.168 -1.2083 -0.1009  0.9232
  216EMC     H8 2495   1.545   2.625   1.084 -3.7343 -1.9669 -2.6477
  217EMC     C1 2496   1.865   1.117   2.253 -0.1094  0.6148  0.5638
  217EMC     C2 2497   1.701   1.061   1.869 -0.2168  0.0880  0.2722
  217EMC     C3 2498   1.692   1.144   2.098  0.0827  0.1379 -0.1735
  217EMC     O1 2499   1.773   1.061   2.164  0.3454  0.2713 -0.0520
  217EMC     O2 2500   1.680   1.045   2.007  0.1705  0.1864  0.0021
  217EMC     O3 2501   1.721   1.263   2.075 -0.3417 -0.2499 -0.9228
  217EMC     H1 2502   1.916   1.040   2.310 -3.9005 -2.2592  0.5142
  217EMC     H2 2503   1.810   1.181   2.322  2.4349  0.9602  2.3959
  217EMC     H3 2504   1.937   1.174   2.195 -1.1581  0.3460 -1.0843
  217EMC     C4 2505   1.562   1.060   1.825 -0.1845 -0.0317 -0.5133
  217EMC     H4 2506   1.761   0.981   1.826 -2.2177 -1.1169 -0.3815
  217EMC     H5 2507   1.759   1.151   1.849  0.2471  0.1016  1.5291
  217EMC     H6 2508   1.563   1.059   1.716 -0.6741  1.1248 -0.5443
  217EMC     H7 2509   1.495   1.142   1.851 -0.6906 -0.2714 -1.0311
  217EMC     H8 2510   1.508   0.971   1.857 -1.0044 -0.0764 -1.9003
  218EMC     C1 2511   0.641   3.097   1.595  0.2638 -0.6546 -0.0011
  218EMC     C2 2512   0.272   3.200   1.584 -0.2330  0.1644  0.4724
  218EMC     C3 2513   0.482   3.210   1.485  0.2168 -0.3528  0.4540
  218EMC     O1 2514   0.530   3.089   1.515 -0.4975 -0.3042  0.0205
  218EMC     O2 2515   0.373   3.141   1.501  0.3220  0.6014 -0.1445
  218EMC     O3 2516   0.505   3.313   1.552 -0.5492  0.2833  0.2303
  218EMC     H1 2517   0.674   2.994   1.605 -0.9834 -1.6144 -3.8560
  218EMC     H2 2518   0.608   3.148   1.686 -1.0662 -1.3439 -0.0631
  218EMC     H3 2519   0.710   3.152   1.531 -2.2309  1.3814 -1.1226
  218EMC     C4 2520   0.136   3.127   1.570  0.4048 -0.5636  0.1560
  218EMC     H4 2521   0.263   3.300   1.540  0.2892 -0.7582 -1.8779
  218EMC     H5 2522   0.293   3.194   1.691 -0.4357 -2.6042  0.4129
  218EMC     H6 2523   0.051   3.191   1.595 -0.9450 -1.8279 -1.0136
  218EMC     H7 2524   0.125   3.028   1.613 -0.6709  1.0205  3.9400
  218EMC     H8 2525   0.123   3.120   1.462  0.9895 -1.0745  0.1108
  219EMC     C1 2526   0.504   2.461   2.075  0.0779 -0.1898 -0.0162
  219EMC     C2 2527   0.309   2.340   2.407 -1.1776 -0.6856  0.1976
  219EMC     C3 2528   0.504   2.403   2.301  0.6335 -0.0255  0.0773
  219EMC     O1 2529   0.467   2.496   2.210  0.1568 -0.1074 -0.4383
  219EMC     O2 2530   0.381   2.362   2.292  0.8289  0.2557 -0.2592
  219EMC     O3 2531   0.559   2.438   2.411  0.0518 -0.0442  0.3326
  219EMC     H1 2532   0.489   2.548   2.012 -1.0728 -0.6266 -0.3628
  219EMC     H2 2533   0.447   2.381   2.027  0.3890 -0.8326  0.6657
  219EMC     H3 2534   0.612   2.442   2.078  0.5954  1.9206 -2.0828
  219EMC     C4 2535   0.202   2.232   2.377 -0.0809  0.0690  0.2948
  219EMC     H4 2536   0.247   2.425   2.433 -1.6241 -0.7516 -0.6301
  219EMC     H5 2537   0.360   2.319   2.501 -1.2114  2.3959  0.9930
  219EMC     H6 2538   0.172   2.177   2.465  0.6855 -0.6547  0.1167
  219EMC     H7 2539   0.239   2.158   2.306  1.3043  1.2267 -0.2759
  219EMC     H8 2540   0.113   2.273   2.330  0.7898  1.6420 -0.0677
  220EMC     C1 2541   2.474   0.209   1.690 -0.1250  0.3637 -0.0566
  220EMC     C2 2542   2.680   0.518   1.580  0.1330 -0.1395 -0.1660
  220EMC     C3 2543   2.628   0.371   1.757 -0.1310 -0.1107  0.0384
  220EMC     O1 2544   2.606   0.253   1.698  1.1422  0.8057 -0.1822
  220EMC     O2 2545   2.695   0.384   1.644 -0.8723  0.4084 -0.2619
  220EMC     O3 2546   2.543   0.444   1.803 -0.0869  0.0903 -0.1799
  220EMC     H1 2547   2.448   0.142   1.773  0.1837  1.4477  0.9407
  220EMC     H2 2548   2.446   0.157   1.599  1.3202  1.2240 -1.0423
  220EMC     H3 2549   2.400   0.288   1.693  0.7111  1.1476  1.0715
  220EMC     C4 2550   2.736   0.518   1.442 -0.3065  0.3703 -0.2756
  220EMC     H4 2551   2.738   0.593   1.633  1.7490  0.6560 -2.9025
  220EMC     H5 2552   2.579   0.557   1.566  0.1342 -1.0225 -3.3592
  220EMC     H6 2553   2.675   0.447   1.386 -1.1011  2.2171 -1.8606
  220EMC     H7 2554   2.836   0.477   1.429 -0.7629 -0.8828 -0.0211
  220EMC     H8 2555   2.730   0.607   1.381 -1.0665  1.4014  1.2194
  221EMC     C1 2556   0.922   2.473   4.371  0.0792 -0.2686  0.1892
  221EMC     C2 2557   1.238   2.189   4.242  0.2658  0.0164  0.5842
  221EMC     C3 2558   1.117   2.339   4.384 -0.5045  0.6591  0.1501
  221EMC     O1 2559   0.988   2.351   4.385  0.3158  0.1390  0.0505
  221EMC     O2 2560   1.138   2.209   4.344  0.0758  0.2991 -0.6726
  221EMC     O3 2561   1.200   2.426   4.367 -0.3100 -0.2304  0.4486
  221EMC     H1 2562   0.839   2.474   4.442 -0.8898 -2.6384 -0.8200
  221EMC     H2 2563   0.882   2.479   4.270 -3.6044  2.1285  1.5675
  221EMC     H3 2564   0.986   2.559   4.390 -0.8469  1.1088 -2.4642
  221EMC     C4 2565   1.264   2.038   4.236  0.6644  0.0907  0.7225
  221EMC     H4 2566   1.335   2.235   4.261 -1.2339  2.9778  1.6669
  221EMC     H5 2567   1.207   2.211   4.140  1.6822  1.8844  0.5069
  221EMC     H6 2568   1.292   1.995   4.333  3.9106  0.8322  0.2331
  221EMC     H7 2569   1.346   2.012   4.170  0.4160  1.1505 -0.0233
  221EMC     H8 2570   1.180   1.983   4.193  0.4911 -0.0110  1.1821
  222EMC     C1 2571   0.483   0.185   2.316 -0.6558  1.0159 -0.2137
  222EMC     C2 2572   0.226   4.402   2.191  0.0835  0.0510  0.9105
  222EMC     C3 2573   0.465   4.465   2.214 -0.4357 -0.2910 -0.0068
  222EMC     O1 2574   0.496   0.045   2.325  0.2001  0.5485 -0.2894
  222EMC     O2 2575   0.339   4.432   2.265  0.8292  0.4087 -0.7722
  222EMC     O3 2576   0.476   0.019   2.104 -0.0166  0.2768 -0.6057
  222EMC     H1 2577   0.534   0.226   2.229  0.9427  1.7025  0.9672
  222EMC     H2 2578   0.504   0.230   2.414  1.2010 -1.0619  0.4250
  222EMC     H3 2579   0.382   0.218   2.291 -0.3937  1.2094 -1.0502
  222EMC     C4 2580   0.157   4.270   2.224 -0.0127 -0.0148  0.1992
  222EMC     H4 2581   0.235   4.399   2.083 -1.8197 -1.5819  0.7477
  222EMC     H5 2582   0.164   4.490   2.206  0.2704 -0.0875  2.7912
  222EMC     H6 2583   0.128   4.264   2.329 -0.8111 -1.6745 -0.0834
  222EMC     H7 2584   0.229   4.190   2.206  0.3770  0.4712 -0.4322
  222EMC     H8 2585   0.077   4.244   2.156 -0.6463 -0.8167  1.2158
  223EMC     C1 2586   2.036   0.383   2.594 -0.7277 -1.5097  0.4058
  223EMC     C2 2587   1.967   0.085   2.858 -0.5586  0.3535  0.7262
  223EMC     C3 2588   1.886   0.236   2.704  0.7252 -0.3896  0.7507
  223EMC     O1 2589   1.975   0.259   2.602  0.0485 -0.1662  0.2047
  223EMC     O2 2590   1.979   0.148   2.734  0.0651 -0.3539 -0.0075
  223EMC     O3 2591   1.847   0.320   2.779 -0.1354 -0.0681  0.4703
  223EMC     H1 2592   2.084   0.396   2.497 -0.6212 -2.9492  0.2509
  223EMC     H2 2593   2.109   0.383   2.675  0.9850  0.2553 -1.0404
  223EMC     H3 2594   1.972   0.470   2.612  1.2782  0.2532 -0.4889
  223EMC     C4 2595   2.045   4.448   2.851  0.0926 -0.2166  0.6046
  223EMC     H4 2596   1.862   0.074   2.884 -1.1080 -1.2483 -1.8494
  223EMC     H5 2597   2.019   0.144   2.933  0.1449  2.4320 -1.3063
  223EMC     H6 2598   2.018   4.384   2.935  1.0488 -1.4790 -0.0108
  223EMC     H7 2599   2.150   4.472   2.866  0.5409 -2.0198  0.5491
  223EMC     H8 2600   2.034   4.383   2.764 -1.1290  2.5299 -1.4496
  224EMC     C1 2601   1.173   1.701   0.846 -0.7349 -0.3967  0.4196
  224EMC     C2 2602   1.094   2.116   0.806  0.0780  0.6943  0.3777
  224EMC     C3 2603   1.206   1.935   0.912 -0.1732 -0.5428  0.2152
  224EMC     O1 2604   1.183   1.803   0.951 -0.5220 -0.0406 -0.2871
  224EMC     O2 2605   1.104   1.972   0.829 -0.0498  0.0831 -0.0252
  224EMC     O3 2606   1.297   2.015   0.958  0.2277  0.1641  0.1680
  224EMC     H1 2607   1.262   1.699   0.783 -0.5799 -0.0626  0.6244
  224EMC     H2 2608   1.094   1.739   0.781  0.2979  2.5491  0.7455
  224EMC     H3 2609   1.154   1.602   0.888  0.4604 -0.6696  0.3480
  224EMC     C4 2610   0.990   2.169   0.709  0.5935  0.5195 -0.2161
  224EMC     H4 2611   1.192   2.147   0.770 -0.0335 -0.7216 -1.2852
  224EMC     H5 2612   1.081   2.159   0.905 -1.2438  1.1418  0.0435
  224EMC     H6 2613   0.986   2.101   0.623 -0.0902  0.0220  0.1940
  224EMC     H7 2614   1.032   2.264   0.678  1.8798 -0.2054 -0.7891
  224EMC     H8 2615   0.891   2.181   0.754  0.1302 -1.4098 -0.6258
  225EMC     C1 2616   0.788   4.196   0.979 -0.1813 -0.0304  0.9535
  225EMC     C2 2617   0.618   4.022   0.703 -0.7260  0.2118  0.2770
  225EMC     C3 2618   0.827   4.014   0.825  0.5119 -0.3514  0.8090
  225EMC     O1 2619   0.832   4.142   0.851  0.9312 -0.4831  0.1206
  225EMC     O2 2620   0.753   4.066   0.726  0.1514 -0.0127 -0.1073
  225EMC     O3 2621   0.791   3.933   0.911 -0.0539  0.1588  0.3420
  225EMC     H1 2622   0.804   4.121   1.055 -0.5207 -0.3087  0.7573
  225EMC     H2 2623   0.684   4.229   0.989  0.5916  3.0405  0.1028
  225EMC     H3 2624   0.850   4.286   0.985 -1.8676  1.2068  0.6522
  225EMC     C4 2625   0.536   4.114   0.616 -1.1249 -0.2568  0.6713
  225EMC     H4 2626   0.575   4.008   0.802 -2.4353 -2.6855 -0.7579
  225EMC     H5 2627   0.627   3.936   0.638  1.1338  1.9356 -1.9385
  225EMC     H6 2628   0.579   4.118   0.516 -1.9236  0.1409  0.3374
  225EMC     H7 2629   0.533   4.218   0.650 -0.1614  1.3933 -3.7038
  225EMC     H8 2630   0.433   4.079   0.616 -0.7530 -1.3974  0.9727
  226EMC     C1 2631   3.222   0.476   1.358  0.0505  0.4835  0.1952
  226EMC     C2 2632   3.447   0.213   1.135  0.4613  0.0272  0.9612
  226EMC     C3 2633   3.409   0.454   1.209 -0.5429 -0.3877 -0.5628
  226EMC     O1 2634   3.324   0.395   1.297  0.7195  0.5262 -0.0438
  226EMC     O2 2635   3.449   0.353   1.110 -0.4143 -0.1235 -0.3135
  226EMC     O3 2636   3.413   0.571   1.187  0.0077  0.0500  0.4159
  226EMC     H1 2637   3.185   0.556   1.294 -0.7845 -0.2755 -0.2891
  226EMC     H2 2638   3.230   0.505   1.463  0.5888  0.5914  0.1294
  226EMC     H3 2639   3.142   0.403   1.352  1.0946 -0.6874  0.0986
  226EMC     C4 2640   3.497   0.141   1.010 -0.9030 -0.6510 -0.9084
  226EMC     H4 2641   3.343   0.186   1.156  0.5001 -0.0123  1.1051
  226EMC     H5 2642   3.502   0.171   1.220  1.0954 -0.1941  0.4432
  226EMC     H6 2643   3.444   0.179   0.923 -2.4174  1.0209  0.6700
  226EMC     H7 2644   3.498   0.032   1.009  0.2578 -0.6713  0.3992
  226EMC     H8 2645   3.597   0.178   0.988 -0.9934  0.1144 -0.0805
  227EMC     C1 2646   3.285   0.595   4.024 -0.3768  0.5046 -0.2296
  227EMC     C2 2647   3.256   0.324   3.736 -0.0994 -0.0771 -0.5528
  227EMC     C3 2648   3.399   0.414   3.906 -0.1954  0.1876 -0.4622
  227EMC     O1 2649   3.326   0.455   4.020 -0.2716 -0.2719 -0.5773
  227EMC     O2 2650   3.294   0.323   3.879 -0.5860  0.1716 -0.1653
  227EMC     O3 2651   3.447   0.489   3.826 -0.5497  0.0328 -0.1751
  227EMC     H1 2652   3.374   0.658   4.014 -0.6434  1.3313  2.0708
  227EMC     H2 2653   3.230   0.620   4.115 -1.1928 -1.6087 -0.0881
  227EMC     H3 2654   3.217   0.611   3.940 -0.6956  1.0759  0.1322
  227EMC     C4 2655   3.127   0.250   3.708 -0.5195  0.1511  0.1442
  227EMC     H4 2656   3.336   0.292   3.669  1.4015  0.4672  0.9077
  227EMC     H5 2657   3.226   0.428   3.728 -1.1586 -0.3651 -0.5568
  227EMC     H6 2658   3.146   0.145   3.730 -1.3451 -0.9705 -3.7572
  227EMC     H7 2659   3.098   0.257   3.603 -2.0224  0.0369  0.5250
  227EMC     H8 2660   3.048   0.298   3.767  2.6500 -1.4668  6.5888
  228EMC     C1 2661   0.413   0.239   3.581 -0.3321 -0.3380 -0.0065
  228EMC     C2 2662   0.172   0.036   3.823  0.1556 -0.4268 -0.3519
  228EMC     C3 2663   0.398   0.097   3.775  0.2143 -1.0073 -0.2545
  228EMC     O1 2664   0.404   0.111   3.646  0.0555 -0.1805  0.3858
  228EMC     O2 2665   0.290   0.028   3.750 -0.3979  0.2883 -0.3460
  228EMC     O3 2666   0.404   0.195   3.858  0.1443  0.2874  0.9382
  228EMC     H1 2667   0.354   0.313   3.636  0.7556 -2.3267  4.2765
  228EMC     H2 2668   0.380   0.231   3.478  1.7015  0.0894 -0.7366
  228EMC     H3 2669   0.515   0.276   3.578 -0.3576 -0.3546 -1.7237
  228EMC     C4 2670   0.066   0.012   3.717  0.5482  0.0821  0.4011
  228EMC     H4 2671   0.156   0.133   3.871 -0.7231 -1.2645  1.1091
  228EMC     H5 2672   0.182   4.458   3.901 -3.3616 -1.0182 -0.2858
  228EMC     H6 2673   0.071   4.402   3.690  1.4699 -1.0353  4.3656
  228EMC     H7 2674   0.081   0.067   3.624  0.8070 -1.3840 -0.4504
  228EMC     H8 2675   4.466   0.029   3.766  0.8481 -0.2234  1.1115
  229EMC     C1 2676   1.570   1.248   2.460  0.0691  0.5240  0.8302
  229EMC     C2 2677   1.415   0.833   2.425  0.3863  0.3521  0.2619
  229EMC     C3 2678   1.431   1.059   2.517 -0.3336  1.3407  0.4654
  229EMC     O1 2679   1.492   1.139   2.426 -0.2844 -0.7515 -0.4139
  229EMC     O2 2680   1.408   0.970   2.414 -0.0723  0.1400  0.0932
  229EMC     O3 2681   1.477   1.040   2.631  0.0122  0.2358  0.5037
  229EMC     H1 2682   1.539   1.290   2.555  3.1493  1.0253  1.7188
  229EMC     H2 2683   1.551   1.329   2.389 -3.3852  0.6447  1.6844
  229EMC     H3 2684   1.678   1.235   2.456 -0.0839 -0.5716 -0.9059
  229EMC     C4 2685   1.442   0.773   2.286  0.4746 -0.5114  0.8000
  229EMC     H4 2686   1.326   0.795   2.476 -0.3686  0.5255 -0.8840
  229EMC     H5 2687   1.496   0.801   2.489  0.5565  1.5764  0.6832
  229EMC     H6 2688   1.519   0.829   2.233 -0.1930 -1.0961 -0.8585
  229EMC     H7 2689   1.356   0.766   2.219 -0.6651  1.7446  1.9049
  229EMC     H8 2690   1.467   0.667   2.292  1.8805 -0.1865  1.0445
  230EMC     C1 2691   2.516   0.263   3.015  0.6528 -0.1738  0.0870
  230EMC     C2 2692   2.685   0.185   2.689  0.2785 -0.0501 -0.1541
  230EMC     C3 2693   2.710   0.151   2.927 -0.0947  0.4423 -0.2143
  230EMC     O1 2694   2.650   0.258   2.974 -0.1390 -0.2790  0.7042
  230EMC     O2 2695   2.736   0.217   2.812 -0.6657  0.3848 -0.4756
  230EMC     O3 2696   2.657   0.038   2.921 -0.2691  0.2490  0.3962
  230EMC     H1 2697   2.454   0.300   2.933  1.4344 -0.2582 -0.5584
  230EMC     H2 2698   2.495   0.327   3.101 -0.7957  1.1275 -1.1605
  230EMC     H3 2699   2.484   0.163   3.041  0.4346  0.0473  0.6882
  230EMC     C4 2700   2.704   0.302   2.590 -0.2387  0.1174 -0.2700
  230EMC     H4 2701   2.582   0.150   2.697 -0.3941  2.0109  1.1780
  230EMC     H5 2702   2.738   0.099   2.650  2.8386  0.1120  2.6088
  230EMC     H6 2703   2.658   0.397   2.617 -0.5622  0.1322 -0.8608
  230EMC     H7 2704   2.661   0.280   2.492 -1.5636  0.3812  0.2414
  230EMC     H8 2705   2.810   0.318   2.570  0.4227 -1.7893  1.3773
  231EMC     C1 2706   3.948   2.321   1.182 -0.3543 -0.3943 -0.3857
  231EMC     C2 2707   4.056   2.284   1.588 -0.9957  0.3673 -0.3033
  231EMC     C3 2708   4.054   2.205   1.369 -0.6962  0.4976 -0.3076
  231EMC     O1 2709   3.966   2.210   1.272 -0.1521 -1.1665  0.6643
  231EMC     O2 2710   3.998   2.278   1.460 -0.4963  0.1402  0.4863
  231EMC     O3 2711   4.112   2.098   1.396  0.3460 -0.2759 -0.6981
  231EMC     H1 2712   3.862   2.385   1.204  1.2046  1.8500 -0.5032
  231EMC     H2 2713   3.920   2.289   1.082  1.7163 -1.4382 -0.6738
  231EMC     H3 2714   4.041   2.376   1.170 -0.0193 -1.0872 -1.0152
  231EMC     C4 2715   3.963   2.359   1.682  0.1665 -0.0487  0.3092
  231EMC     H4 2716   4.159   2.320   1.596 -1.7445  2.2114  2.4937
  231EMC     H5 2717   4.072   2.183   1.627  0.2741  0.5240 -0.3559
  231EMC     H6 2718   3.860   2.326   1.670  0.0320  0.8555 -1.3849
  231EMC     H7 2719   3.966   2.466   1.660 -2.4006  0.0888  0.3475
  231EMC     H8 2720   3.991   2.346   1.786  0.1033  2.5306  0.7204
  232EMC     C1 2721   0.058   0.362   3.775  0.1539  1.4445  0.2183
  232EMC     C2 2722   0.350   0.655   3.631 -0.4716 -0.2538  0.0675
  232EMC     C3 2723   0.202   0.561   3.806 -1.1502  0.0659 -0.4717
  232EMC     O1 2724   0.105   0.493   3.734 -0.1999  0.7513 -0.3861
  232EMC     O2 2725   0.225   0.639   3.697 -0.0326 -0.1939 -0.0044
  232EMC     O3 2726   0.287   0.490   3.857  0.6596  0.5856  0.3252
  232EMC     H1 2727   0.118   0.285   3.726 -1.0168  2.2659 -2.7661
  232EMC     H2 2728   4.449   0.353   3.746 -0.1221 -2.3195  1.8360
  232EMC     H3 2729   0.057   0.348   3.883  1.3165 -1.4963 -0.0599
  232EMC     C4 2730   0.342   0.734   3.499  0.0713 -0.1701  0.6038
  232EMC     H4 2731   0.373   0.553   3.599 -4.2488 -1.4344  0.7059
  232EMC     H5 2732   0.435   0.679   3.694 -2.5930 -0.3800  3.1934
  232EMC     H6 2733   0.438   0.737   3.447  0.0832  0.1858  0.6412
  232EMC     H7 2734   0.309   0.837   3.513 -1.6178 -0.3242 -1.7792
  232EMC     H8 2735   0.268   0.691   3.432 -0.0744 -0.3583  0.8828
  233EMC     C1 2736   1.268   3.480   1.939  0.1435 -0.4638  0.6870
  233EMC     C2 2737   1.334   3.509   1.519  0.0447 -0.1713 -0.1810
  233EMC     C3 2738   1.301   3.594   1.733 -0.1972  0.0701  0.1145
  233EMC     O1 2739   1.220   3.543   1.819 -0.2528  0.1164 -0.4150
  233EMC     O2 2740   1.245   3.540   1.619 -0.1690  0.6805 -1.0928
  233EMC     O3 2741   1.425   3.594   1.747 -0.1211  0.5507  0.4504
  233EMC     H1 2742   1.197   3.404   1.970 -1.5957 -0.0537 -2.0112
  233EMC     H2 2743   1.289   3.542   2.027  2.2712  0.0025 -0.0798
  233EMC     H3 2744   1.356   3.419   1.917  1.5907  1.0428  1.9963
  233EMC     C4 2745   1.244   3.484   1.398  0.5349 -0.7030 -0.0267
  233EMC     H4 2746   1.385   3.412   1.526 -2.1497 -1.4201 -0.5799
  233EMC     H5 2747   1.406   3.590   1.507  0.8954 -0.7574  0.8173
  233EMC     H6 2748   1.192   3.574   1.363  2.7206  0.4205 -0.5507
  233EMC     H7 2749   1.170   3.404   1.407  1.2751 -1.4128 -0.1550
  233EMC     H8 2750   1.297   3.456   1.307  2.2100 -0.5994  0.8870
  234EMC     C1 2751   1.716   3.305   1.817  0.1477 -0.2487  0.4132
  234EMC     C2 2752   1.954   3.161   2.094 -0.5627 -0.5149  0.3098
  234EMC     C3 2753   1.863   3.355   1.995 -0.4393  0.1384  0.2164
  234EMC     O1 2754   1.845   3.310   1.874  0.3414  0.3078  0.6627
  234EMC     O2 2755   1.969   3.277   2.004  0.1891  0.6613  0.5663
  234EMC     O3 2756   1.779   3.362   2.081  0.3736 -0.2308  0.1975
  234EMC     H1 2757   1.715   3.261   1.717  0.1522  3.5537 -1.4777
  234EMC     H2 2758   1.673   3.405   1.805  1.9409  0.4454 -0.6421
  234EMC     H3 2759   1.655   3.244   1.883 -3.1512  4.5573  2.4465
  234EMC     C4 2760   2.089   3.099   2.134  0.3415  0.3805 -0.6354
  234EMC     H4 2761   1.875   3.093   2.062 -1.3542  0.7416 -0.5203
  234EMC     H5 2762   1.903   3.196   2.185  3.4677  2.6500  1.6789
  234EMC     H6 2763   2.140   3.073   2.041 -0.1723 -0.4429 -0.6953
  234EMC     H7 2764   2.086   3.019   2.208 -1.0931 -0.2156 -1.2931
  234EMC     H8 2765   2.152   3.179   2.174  0.7334  0.6313 -1.7120
  235EMC     C1 2766   4.454   0.757   3.139 -0.0591 -0.1953 -0.3308
  235EMC     C2 2767   4.439   0.459   3.452  0.2486  0.1295  0.2786
  235EMC     C3 2768   4.408   0.545   3.230  0.1114 -1.0783 -0.1074
  235EMC     O1 2769   0.004   0.636   3.193  0.1066 -0.1412  0.3106
  235EMC     O2 2770   4.485   0.491   3.322 -0.0320  0.7778  0.2107
  235EMC     O3 2771   4.284   0.551   3.232  0.6023  0.4394  0.1139
  235EMC     H1 2772   0.049   0.816   3.127  0.5110 -0.9225  0.3169
  235EMC     H2 2773   4.384   0.812   3.202  0.3849 -0.1271  0.1116
  235EMC     H3 2774   4.415   0.737   3.039  2.2032  0.1432 -1.3353
  235EMC     C4 2775   4.406   0.585   3.523 -0.6388  0.4556 -0.1649
  235EMC     H4 2776   0.017   0.398   3.504  0.4427  0.8250  0.8295
  235EMC     H5 2777   4.354   0.392   3.442  1.0128 -0.7764 -0.4228
  235EMC     H6 2778   0.004   0.635   3.545 -0.4773 -0.2113  0.7494
  235EMC     H7 2779   4.371   0.555   3.622  4.1348  0.8936  1.9134
  235EMC     H8 2780   4.341   0.652   3.467 -0.9825  0.3546  0.1056
  236EMC     C1 2781   0.136   3.431   2.206  0.2608 -0.9028 -0.1697
  236EMC     C2 2782   0.222   3.835   2.201 -0.1494 -0.1127  0.2134
  236EMC     C3 2783   0.099   3.639   2.107 -0.3502  0.1617 -0.2402
  236EMC     O1 2784   0.145   3.573   2.212 -0.2546 -0.6119 -0.0217
  236EMC     O2 2785   0.194   3.745   2.094 -0.0541  0.0869  0.3842
  236EMC     O3 2786   0.043   3.588   2.014 -0.2545  0.1021 -0.1645
  236EMC     H1 2787   0.203   3.383   2.277 -0.5979  1.3256  2.3241
  236EMC     H2 2788   0.159   3.390   2.107  0.8719  2.1510 -1.4231
  236EMC     H3 2789   0.034   3.403   2.232 -0.1242  1.2091  0.8694
  236EMC     C4 2790   0.110   3.930   2.232 -0.4988 -0.2965 -0.0706
  236EMC     H4 2791   0.310   3.891   2.170 -0.8657  1.8375  1.5128
  236EMC     H5 2792   0.247   3.777   2.290  1.1573 -0.0443 -0.0817
  236EMC     H6 2793   0.131   3.996   2.317  0.8713  0.8289 -1.2249
  236EMC     H7 2794   0.017   3.880   2.258 -1.7333  2.0602  0.3665
  236EMC     H8 2795   0.090   4.005   2.156  1.3019  1.3511  0.9880
  237EMC     C1 2796   3.781   0.424   1.913  0.3430 -0.1240  0.0927
  237EMC     C2 2797   3.919   0.277   1.571  0.0913 -0.2673 -0.9076
  237EMC     C3 2798   3.905   0.260   1.809  0.3536  0.2744  0.6814
  237EMC     O1 2799   3.795   0.288   1.871  0.0244 -0.0098 -0.2912
  237EMC     O2 2800   3.855   0.226   1.694  0.0842 -0.5110 -0.2362
  237EMC     O3 2801   4.007   0.325   1.826 -0.0841 -0.1700  0.6866
  237EMC     H1 2802   3.825   0.431   2.013 -1.4956 -0.0300  0.9443
  237EMC     H2 2803   3.676   0.454   1.920  0.5355  0.2277  2.2932
  237EMC     H3 2804   3.832   0.489   1.843  0.0550 -1.0263 -0.9834
  237EMC     C4 2805   3.827   0.236   1.444  0.3016 -0.0533  0.7359
  237EMC     H4 2806   4.019   0.234   1.576  0.0023 -0.3689  0.1461
  237EMC     H5 2807   3.923   0.386   1.576 -0.3220 -0.2715 -0.3191
  237EMC     H6 2808   3.724   0.259   1.470  0.1935 -0.5326  0.7376
  237EMC     H7 2809   3.837   0.129   1.424 -0.2921  0.0053  0.0643
  237EMC     H8 2810   3.852   0.286   1.350  4.4327 -2.5968  0.2072
  238EMC     C1 2811   1.776   1.578   1.612  0.3372  0.0051  0.1935
  238EMC     C2 2812   1.662   1.798   1.922  0.3376  0.3354  0.6011
  238EMC     C3 2813   1.608   1.610   1.775 -0.7259  0.3350  0.0155
  238EMC     O1 2814   1.673   1.659   1.663 -0.2373  0.2340 -0.3260
  238EMC     O2 2815   1.629   1.743   1.793  0.1188 -0.0345 -0.2016
  238EMC     O3 2816   1.651   1.520   1.848 -0.0546  0.3979  0.2386
  238EMC     H1 2817   1.833   1.538   1.696  0.5301 -0.6279 -0.2405
  238EMC     H2 2818   1.855   1.627   1.555  1.3181 -1.5175  0.2014
  238EMC     H3 2819   1.740   1.498   1.548 -1.0574  0.5519  0.2650
  238EMC     C4 2820   1.716   1.946   1.920 -0.5308 -0.0771 -0.0335
  238EMC     H4 2821   1.736   1.733   1.970  0.4929  1.1178  1.4583
  238EMC     H5 2822   1.575   1.791   1.988  0.1800 -0.4915  0.3190
  238EMC     H6 2823   1.818   1.950   1.882  0.0566  0.9371  1.5439
  238EMC     H7 2824   1.711   1.996   2.017  1.4699  0.4187 -0.1339
  238EMC     H8 2825   1.655   1.998   1.847 -0.6783 -0.2254 -0.0155
  239EMC     C1 2826   3.498   4.252   3.841 -0.0522 -0.2396  0.1476
  239EMC     C2 2827   3.777   4.345   4.142  0.7048 -0.1946 -0.4396
  239EMC     C3 2828   3.561   4.329   4.057  0.1163  0.4396 -0.2927
  239EMC     O1 2829   3.522   4.356   3.934  0.0036 -0.1934 -0.0482
  239EMC     O2 2830   3.685   4.377   4.040 -0.4976  0.5513 -0.5098
  239EMC     O3 2831   3.540   4.221   4.111  0.6455 -0.2837 -0.6385
  239EMC     H1 2832   3.577   4.177   3.833 -0.8190 -1.0109 -0.3681
  239EMC     H2 2833   3.488   4.289   3.738  0.7617  0.0215  0.1526
  239EMC     H3 2834   3.414   4.186   3.863 -1.3608  0.7773 -1.5114
  239EMC     C4 2835   3.862   4.225   4.110  0.0166 -0.0860  0.0120
  239EMC     H4 2836   3.741   4.333   4.244 -1.1373 -0.2347 -1.0673
  239EMC     H5 2837   3.843   4.431   4.159  0.0741 -0.0487  1.5919
  239EMC     H6 2838   3.809   4.138   4.072 -1.4262 -1.0117  3.6785
  239EMC     H7 2839   3.919   4.193   4.197  0.6614 -1.9030 -1.0318
  239EMC     H8 2840   3.939   4.259   4.041 -0.8139  1.0088 -0.4072
  240EMC     C1 2841   1.703   1.516   4.186  0.3907  0.1612  0.6681
  240EMC     C2 2842   1.603   1.779   3.797 -0.1687 -0.7919  0.8502
  240EMC     C3 2843   1.657   1.617   3.974  0.3972 -0.0091  1.1590
  240EMC     O1 2844   1.683   1.631   4.107  0.1269  0.1334 -0.0541
  240EMC     O2 2845   1.674   1.742   3.917 -0.2335  0.5074  0.7181
  240EMC     O3 2846   1.624   1.515   3.921 -0.0615  0.3953  0.7785
  240EMC     H1 2847   1.743   1.432   4.129  0.1981  1.8295 -2.0711
  240EMC     H2 2848   1.607   1.477   4.220  0.6469  0.1638  1.4346
  240EMC     H3 2849   1.755   1.529   4.281 -3.7441  2.3626  2.8943
  240EMC     C4 2850   1.616   1.937   3.763  0.3034  0.2028  0.4786
  240EMC     H4 2851   1.499   1.746   3.797 -0.0761 -1.1025  1.8296
  240EMC     H5 2852   1.640   1.712   3.719 -1.8038 -2.1539  1.1958
  240EMC     H6 2853   1.603   1.997   3.853  1.1335  2.0462 -0.5654
  240EMC     H7 2854   1.542   1.969   3.690  0.8413 -1.2939 -0.7774
  240EMC     H8 2855   1.717   1.960   3.728  0.8851 -1.3466  1.0574
  241EMC     C1 2856   1.842   1.851   1.254  0.8781  0.0858 -0.4644
  241EMC     C2 2857   1.896   2.233   1.499 -0.1593 -0.2776  0.2930
  241EMC     C3 2858   1.798   2.043   1.389 -0.2635 -0.8090 -0.4074
  241EMC     O1 2859   1.807   1.983   1.270  0.1299 -0.1301 -0.9359
  241EMC     O2 2860   1.832   2.163   1.383  0.7276 -0.2971 -0.0045
  241EMC     O3 2861   1.804   1.980   1.492  0.3377 -0.0937 -0.7108
  241EMC     H1 2862   1.950   1.839   1.256  0.6779 -2.0107  1.3690
  241EMC     H2 2863   1.800   1.809   1.162  1.9221  0.5617 -1.1757
  241EMC     H3 2864   1.808   1.775   1.325 -0.3420 -0.8282 -1.9605
  241EMC     C4 2865   1.946   2.377   1.472  0.2318 -0.8470  0.0103
  241EMC     H4 2866   1.990   2.179   1.516  0.6316  0.8083 -0.5449
  241EMC     H5 2867   1.837   2.216   1.589 -0.7503 -2.9419 -0.5051
  241EMC     H6 2868   2.016   2.407   1.550  0.7662 -0.1524 -0.7175
  241EMC     H7 2869   1.855   2.436   1.481 -1.4152 -3.2570 -0.1233
  241EMC     H8 2870   1.988   2.390   1.373  0.0967  0.9090  0.1518
  242EMC     C1 2871   0.235   0.139   0.670  0.5050 -0.2800  0.1573
  242EMC     C2 2872   0.543   4.492   0.375  0.2668  0.1179 -0.6834
  242EMC     C3 2873   0.352   0.074   0.463  0.1902 -0.0902 -0.1556
  242EMC     O1 2874   0.286   0.037   0.573  0.0617  0.5748 -0.4498
  242EMC     O2 2875   0.428   4.466   0.440  0.5557  0.1698  0.1064
  242EMC     O3 2876   0.376   0.195   0.438 -0.0089 -0.0784  0.2049
  242EMC     H1 2877   0.208   0.093   0.765 -2.6300  1.3457  0.2145
  242EMC     H2 2878   0.148   0.184   0.622  0.1335 -1.6404 -0.4910
  242EMC     H3 2879   0.312   0.216   0.681 -1.8733  2.8578 -2.6999
  242EMC     C4 2880   0.579   4.363   0.298 -0.1226  0.1727 -0.0289
  242EMC     H4 2881   0.623   0.022   0.444  0.0274 -1.7730  0.3686
  242EMC     H5 2882   0.536   0.085   0.312 -0.8865  0.1499 -0.5395
  242EMC     H6 2883   0.683   4.365   0.263  1.2954  1.0765  3.7408
  242EMC     H7 2884   0.511   4.346   0.214 -2.6553 -1.3991  2.1931
  242EMC     H8 2885   0.567   4.273   0.359  0.1776  0.6801  0.7924
  243EMC     C1 2886   1.122   4.447   0.813  0.2414 -0.7309  0.0345
  243EMC     C2 2887   1.178   0.362   0.812  0.3708 -0.3812  0.1893
  243EMC     C3 2888   1.263   0.147   0.782  0.0424  1.0440  0.5054
  243EMC     O1 2889   1.141   0.081   0.765  0.0106  1.1129  0.5798
  243EMC     O2 2890   1.192   0.244   0.738 -0.5601 -0.0055  0.0830
  243EMC     O3 2891   1.324   0.163   0.891 -0.4557  0.0961 -0.2073
  243EMC     H1 2892   1.203   4.375   0.824 -0.5304 -1.7407 -0.7847
  243EMC     H2 2893   1.056   4.408   0.737 -0.4235  0.3474  0.0370
  243EMC     H3 2894   1.068   4.464   0.906  0.1467  1.2035 -0.3222
  243EMC     C4 2895   1.083   0.457   0.735 -0.8763  0.0035 -0.8710
  243EMC     H4 2896   1.275   0.412   0.810  0.2366 -0.0275  1.5133
  243EMC     H5 2897   1.135   0.348   0.911 -0.3693 -0.4810 -0.1361
  243EMC     H6 2898   1.119   0.478   0.634  0.2099  1.1015 -0.2770
  243EMC     H7 2899   1.067   0.545   0.798  1.2252 -1.4088  1.8525
  243EMC     H8 2900   0.994   0.397   0.715 -0.6567 -1.0159  0.9408
  244EMC     C1 2901   4.230   1.084   4.163  0.3566  0.1959 -0.2189
  244EMC     C2 2902   0.126   1.249   4.329 -0.4192 -0.1564  0.1347
  244EMC     C3 2903   4.430   1.112   4.289 -0.3966  0.4695  0.3071
  244EMC     O1 2904   4.314   1.162   4.247 -0.7136 -0.0286 -0.1866
  244EMC     O2 2905   4.485   1.235   4.301  0.6072  0.4165  0.3595
  244EMC     O3 2906   4.475   0.994   4.277  0.3955 -0.0190  0.7570
  244EMC     H1 2907   4.145   1.144   4.132  0.6231  1.0954  0.7330
  244EMC     H2 2908   4.212   0.988   4.212  0.8095 -0.2359 -0.8674
  244EMC     H3 2909   4.280   1.065   4.068  1.4368 -0.3811  0.4392
  244EMC     C4 2910   0.166   1.392   4.383 -0.3607 -0.0633 -0.0284
  244EMC     H4 2911   0.178   1.224   4.236 -2.8583  1.3766 -1.7745
  244EMC     H5 2912   0.153   1.165   4.392 -2.6681 -2.1504 -1.3811
  244EMC     H6 2913   0.269   1.413   4.357 -1.1909  1.8516 -2.1325
  244EMC     H7 2914   0.141   1.395   4.489  1.4349  0.9475  0.4040
  244EMC     H8 2915   0.104   1.469   4.336 -1.5830 -2.4318 -2.6194
  245EMC     C1 2916   2.880   3.158   1.554 -0.3061 -0.2115 -0.1897
  245EMC     C2 2917   2.778   2.804   1.714 -0.0277  0.5476 -0.7326
  245EMC     C3 2918   2.722   3.004   1.610  0.2505  0.1324  0.1695
  245EMC     O1 2919   2.777   3.125   1.642 -0.1712  0.2805 -0.1518
  245EMC     O2 2920   2.814   2.913   1.641 -0.9737  0.2853  0.5529
  245EMC     O3 2921   2.602   2.984   1.630  0.0858 -0.3129 -0.0750
  245EMC     H1 2922   2.883   3.091   1.468 -2.4969 -0.2140 -0.3324
  245EMC     H2 2923   2.972   3.173   1.609 -1.2463  1.2864  1.0770
  245EMC     H3 2924   2.887   3.252   1.498  0.0960 -0.8245 -1.1896
  245EMC     C4 2925   2.889   2.700   1.753  0.6740 -0.0722  0.3340
  245EMC     H4 2926   2.691   2.754   1.672  1.1721 -3.1258  0.7125
  245EMC     H5 2927   2.730   2.837   1.806  0.4844 -1.9121  0.4923
  245EMC     H6 2928   2.979   2.753   1.784  0.1198  2.1562 -1.5675
  245EMC     H7 2929   2.928   2.638   1.672 -0.7782 -2.8309  1.5830
  245EMC     H8 2930   2.856   2.643   1.840  0.6654  0.6830  0.8296
  246EMC     C1 2931   0.781   1.131   3.540  0.8211 -0.5585 -0.1677
  246EMC     C2 2932   0.415   1.266   3.621  0.5093  0.5103  0.2888
  246EMC     C3 2933   0.608   1.127   3.690 -0.1654  0.2216  0.2478
  246EMC     O1 2934   0.713   1.189   3.651  0.8673 -0.0218 -0.1392
  246EMC     O2 2935   0.546   1.245   3.685  0.0602 -0.6671  0.0794
  246EMC     O3 2936   0.560   1.028   3.644  0.9717 -0.3769  0.7481
  246EMC     H1 2937   0.732   1.136   3.442  0.2140  1.6924  0.1916
  246EMC     H2 2938   0.793   1.023   3.554 -1.0474 -0.6309  1.3298
  246EMC     H3 2939   0.882   1.171   3.534 -0.3191  3.3516  2.8563
  246EMC     C4 2940   0.338   1.389   3.679 -0.0345  0.0983  0.1044
  246EMC     H4 2941   0.351   1.180   3.642  0.2611  1.0008  1.6708
  246EMC     H5 2942   0.434   1.279   3.515  2.1100 -0.2384  0.4611
  246EMC     H6 2943   0.366   1.409   3.782  2.5310  0.7470 -0.6544
  246EMC     H7 2944   0.229   1.383   3.674 -0.0417  0.4585 -0.1787
  246EMC     H8 2945   0.367   1.480   3.626 -0.9010 -1.7833 -4.0322
  247EMC     C1 2946   3.412   2.054   3.294 -0.0039 -0.3087  0.8628
  247EMC     C2 2947   3.421   1.996   3.684  0.4967 -0.8320 -0.5626
  247EMC     C3 2948   3.538   1.960   3.470  0.4676  0.3739  0.5431
  247EMC     O1 2949   3.443   1.946   3.378  0.0150 -0.7396  0.1087
  247EMC     O2 2950   3.459   1.913   3.574 -0.1401 -0.2551 -0.1421
  247EMC     O3 2951   3.607   2.055   3.476  0.0256 -0.4992 -0.0837
  247EMC     H1 2952   3.351   2.028   3.207 -0.7445  2.2196  0.5451
  247EMC     H2 2953   3.497   2.088   3.234 -0.6709 -1.3196 -0.7373
  247EMC     H3 2954   3.367   2.140   3.343 -2.2247 -0.4093 -0.8096
  247EMC     C4 2955   3.280   2.047   3.675 -0.3997  0.2459 -0.4319
  247EMC     H4 2956   3.488   2.082   3.697 -1.2874  0.3249  1.6636
  247EMC     H5 2957   3.428   1.946   3.781  2.6285 -2.0093 -1.2624
  247EMC     H6 2958   3.276   2.121   3.755  0.3707 -0.0045 -0.1571
  247EMC     H7 2959   3.198   1.975   3.684 -1.0992  1.0112 -0.6130
  247EMC     H8 2960   3.276   2.094   3.577  0.5927 -0.6443 -0.9249
  248EMC     C1 2961   0.089   1.373   0.345 -0.4019  0.1298  0.2446
  248EMC     C2 2962   4.237   1.240   0.070 -0.6710  0.0606 -0.3751
  248EMC     C3 2963   4.421   1.253   0.216 -0.4370 -0.0795 -0.2323
  248EMC     O1 2964   4.452   1.359   0.297 -0.4877  0.3175  0.4085
  248EMC     O2 2965   4.292   1.267   0.199  0.2406 -0.5213  0.1090
  248EMC     O3 2966   0.005   1.201   0.139  0.1007  0.6272  0.6035
  248EMC     H1 2967   0.163   1.417   0.278 -0.6837  1.6322  0.8912
  248EMC     H2 2968   0.136   1.278   0.369 -0.2823 -0.3860 -1.8622
  248EMC     H3 2969   0.106   1.433   0.434  3.8749 -2.1527  1.2272
  248EMC     C4 2970   4.081   1.250   0.076  0.5612  0.6508  0.7540
  248EMC     H4 2971   4.265   1.140   0.039 -1.3846  0.4496 -2.4552
  248EMC     H5 2972   4.278   1.309   4.493  1.7044  1.3318  1.9782
  248EMC     H6 2973   4.044   1.172   0.142 -1.4811  1.5675  0.7929
  248EMC     H7 2974   4.040   1.229   4.473  0.3413  1.3545  0.6882
  248EMC     H8 2975   4.041   1.344   0.117 -1.1956 -0.5802  2.0346
  249EMC     C1 2976   3.769   0.365   3.028  0.5349 -0.2340  0.6532
  249EMC     C2 2977   4.082   0.316   2.764 -0.4780  0.2941  0.7559
  249EMC     C3 2978   3.947   0.458   2.899 -0.3170  0.5488  0.6269
  249EMC     O1 2979   3.829   0.397   2.905  0.0323  0.0173  0.3509
  249EMC     O2 2980   3.962   0.377   2.796  0.7112 -0.0644 -0.1574
  249EMC     O3 2981   4.027   0.459   2.994 -0.0499 -0.0449  0.0426
  249EMC     H1 2982   3.716   0.271   3.012  1.2946 -0.3138 -1.8172
  249EMC     H2 2983   3.710   0.456   3.037 -0.6781 -0.7773 -1.3833
  249EMC     H3 2984   3.843   0.349   3.107 -1.2523  1.3876  2.7730
  249EMC     C4 2985   4.081   0.276   2.620 -0.7296  0.0329  0.0577
  249EMC     H4 2986   4.115   0.256   2.848  1.0590 -0.2039 -0.1716
  249EMC     H5 2987   4.151   0.400   2.767 -0.1510  0.1365 -1.1756
  249EMC     H6 2988   4.057   0.360   2.555  0.3329  0.8551  0.6944
  249EMC     H7 2989   4.013   0.193   2.601 -1.2962  0.2445  1.0543
  249EMC     H8 2990   4.185   0.246   2.604 -1.2098 -1.0024 -1.2256
  250EMC     C1 2991   2.056   2.498   4.476  0.6085 -0.1026 -0.0962
  250EMC     C2 2992   2.295   2.185   0.096  0.7386 -0.3944 -0.4933
  250EMC     C3 2993   2.253   2.415   0.056  0.0868  0.2804 -0.2700
  250EMC     O1 2994   2.124   2.390   0.025 -0.8214 -0.1489 -0.0943
  250EMC     O2 2995   2.256   2.310   0.148  0.3547 -0.3440  0.3054
  250EMC     O3 2996   2.300   2.523   0.092 -0.1331  0.5675 -0.1376
  250EMC     H1 2997   1.991   2.461   4.396  1.1740  1.2985 -1.2464
  250EMC     H2 2998   2.109   2.578   4.425  0.1859  1.4336  1.7569
  250EMC     H3 2999   1.989   2.531   0.059 -1.2213 -2.8611 -0.3445
  250EMC     C4 3000   2.367   2.104   0.204  0.6487 -0.6201 -0.0304
  250EMC     H4 3001   2.366   2.193   0.013  0.6606 -0.5985 -0.5794
  250EMC     H5 3002   2.203   2.140   0.058  0.1335 -0.2882  0.7769
  250EMC     H6 3003   2.385   2.003   0.167  0.8021 -0.6898  0.2310
  250EMC     H7 3004   2.300   2.107   0.290  1.0013  4.4501  0.4121
  250EMC     H8 3005   2.462   2.143   0.239  0.7441 -0.8202 -0.0656
  251EMC     C1 3006   0.400   4.223   2.512 -0.0827 -0.4669  0.0692
  251EMC     C2 3007   0.367   3.843   2.700  0.1673  0.3441 -0.5995
  251EMC     C3 3008   0.471   3.995   2.537  0.0083  0.0627  0.3740
  251EMC     O1 3009   0.472   4.123   2.587  0.8015  0.2055 -0.0963
  251EMC     O2 3010   0.414   3.974   2.661 -0.4937  0.0699  0.0728
  251EMC     O3 3011   0.419   3.970   2.427  0.5170 -0.5662  0.2591
  251EMC     H1 3012   0.449   4.239   2.416  0.8266 -2.1308  0.2311
  251EMC     H2 3013   0.409   4.322   2.558 -2.8915  0.3607 -0.9239
  251EMC     H3 3014   0.297   4.193   2.492  0.4358 -1.5821 -1.0946
  251EMC     C4 3015   0.448   3.785   2.817 -0.2054  0.0869  0.1202
  251EMC     H4 3016   0.373   3.769   2.619  1.2462 -0.5165  0.2437
  251EMC     H5 3017   0.265   3.838   2.738  1.0985  0.4182  2.0559
  251EMC     H6 3018   0.554   3.791   2.791  0.1637  2.8337  1.8377
  251EMC     H7 3019   0.420   3.680   2.820  0.2994 -0.2950 -3.7458
  251EMC     H8 3020   0.436   3.835   2.914  1.4965  0.3569  0.2253
  252EMC     C1 3021   1.968   1.651   0.832  0.0751 -0.7257 -0.2402
  252EMC     C2 3022   1.865   1.449   0.513  0.2212 -0.7114 -1.0403
  252EMC     C3 3023   1.883   1.450   0.758  0.0297  0.4150  0.3564
  252EMC     O1 3024   1.861   1.569   0.810 -0.5349  0.3774 -0.2530
  252EMC     O2 3025   1.816   1.486   0.646  0.0299 -0.8197 -0.0567
  252EMC     O3 3026   1.991   1.391   0.752 -0.0308  0.1660  0.4690
  252EMC     H1 3027   1.993   1.625   0.935  2.9468 -0.5545 -0.7942
  252EMC     H2 3028   1.953   1.758   0.827 -0.7805 -0.7758  0.9027
  252EMC     H3 3029   2.061   1.631   0.778 -0.1662  0.8326 -1.2857
  252EMC     C4 3030   1.750   1.458   0.414 -0.1889 -0.1860 -0.5922
  252EMC     H4 3031   1.910   1.350   0.517  0.6330 -0.5108  1.7919
  252EMC     H5 3032   1.935   1.524   0.478 -0.4177  0.9950  1.0845
  252EMC     H6 3033   1.770   1.394   0.328 -1.1958 -2.7622  0.9758
  252EMC     H7 3034   1.740   1.563   0.386  1.7442  1.2085  3.2475
  252EMC     H8 3035   1.655   1.422   0.454 -1.1405 -0.5401 -3.0155
  253EMC     C1 3036   1.385   2.736   3.264  1.4896 -0.6220 -0.4555
  253EMC     C2 3037   1.346   2.671   3.641 -0.0099  0.4635  0.3616
  253EMC     C3 3038   1.426   2.596   3.435 -0.4271  0.0138 -0.2842
  253EMC     O1 3039   1.476   2.678   3.348  0.2718 -0.4917 -0.1100
  253EMC     O2 3040   1.454   2.659   3.557 -0.3712 -0.2894 -0.9583
  253EMC     O3 3041   1.325   2.528   3.407  0.9119 -0.0734  0.1082
  253EMC     H1 3042   1.327   2.657   3.217 -1.7792  2.3475 -1.8449
  253EMC     H2 3043   1.426   2.799   3.185  1.2090  0.0317 -0.0810
  253EMC     H3 3044   1.303   2.792   3.308  0.5329 -0.1758 -2.6709
  253EMC     C4 3045   1.379   2.738   3.773 -0.1979 -0.4364 -0.2961
  253EMC     H4 3046   1.330   2.568   3.674  0.2743 -0.4805 -2.2260
  253EMC     H5 3047   1.262   2.718   3.589  0.9652  2.3227  0.3927
  253EMC     H6 3048   1.474   2.706   3.817 -0.2108  1.1778  0.9657
  253EMC     H7 3049   1.312   2.720   3.857  1.6668  1.0458  1.6115
  253EMC     H8 3050   1.401   2.843   3.753 -0.0127  0.0319  2.0710
  254EMC     C1 3051   1.139   3.107   4.090  0.3447 -0.5806  0.6614
  254EMC     C2 3052   1.566   3.036   4.104  0.3186 -0.9126 -0.5985
  254EMC     C3 3053   1.350   3.035   4.001 -0.3774 -0.8739 -0.3182
  254EMC     O1 3054   1.279   3.138   4.053  0.1846 -0.1643  0.0360
  254EMC     O2 3055   1.459   3.105   4.044 -0.1300  0.8305  0.1025
  254EMC     O3 3056   1.328   2.915   4.012  0.3337 -0.7754 -0.6365
  254EMC     H1 3057   1.077   3.174   4.031  0.9127  1.6951  2.4914
  254EMC     H2 3058   1.106   3.128   4.191 -1.5673 -0.4455  0.0484
  254EMC     H3 3059   1.111   3.005   4.067 -0.6934  0.1156 -1.5095
  254EMC     C4 3060   1.696   3.119   4.083 -0.0326 -1.0993 -0.2208
  254EMC     H4 3061   1.570   2.932   4.069  0.0848 -1.1608  0.1008
  254EMC     H5 3062   1.547   3.012   4.208  0.2617  0.5420 -0.2551
  254EMC     H6 3063   1.671   3.215   4.129  1.8723 -1.1039  0.9464
  254EMC     H7 3064   1.726   3.146   3.982  1.7199  1.7859  0.9613
  254EMC     H8 3065   1.779   3.089   4.147 -0.0951 -1.5069 -0.3289
  255EMC     C1 3066   1.808   2.799   2.674 -0.6838  0.2104  0.0651
  255EMC     C2 3067   1.710   3.205   2.457  0.6608  0.4735  0.1004
  255EMC     C3 3068   1.759   3.007   2.578  0.5151 -0.2288  0.1129
  255EMC     O1 3069   1.843   2.904   2.589  0.0976  0.0683 -0.1569
  255EMC     O2 3070   1.797   3.104   2.492  0.0979  0.2776 -0.6444
  255EMC     O3 3071   1.651   3.008   2.628  0.4465 -0.3915 -0.2384
  255EMC     H1 3072   1.727   2.825   2.743 -2.2390 -2.1491 -0.7607
  255EMC     H2 3073   1.899   2.764   2.721 -0.2699  0.3587 -0.6084
  255EMC     H3 3074   1.760   2.729   2.606  0.8615 -1.6321  0.7958
  255EMC     C4 3075   1.781   3.342   2.428 -0.1365 -0.1818 -0.1688
  255EMC     H4 3076   1.629   3.213   2.530  0.2309  1.9512 -0.4962
  255EMC     H5 3077   1.660   3.179   2.364 -0.2906  2.1547  0.0932
  255EMC     H6 3078   1.713   3.415   2.386  0.9744  0.8155 -0.3082
  255EMC     H7 3079   1.867   3.335   2.361  0.7158 -0.4761  0.9069
  255EMC     H8 3080   1.818   3.385   2.522  0.8980 -0.2096 -0.5525
  256EMC     C1 3081   2.412   3.760   4.213 -0.5522 -0.5377 -0.2648
  256EMC     C2 3082   2.711   3.545   4.249  0.0770 -0.5775 -0.0173
  256EMC     C3 3083   2.514   3.598   4.364 -0.1215  0.3197  0.4995
  256EMC     O1 3084   2.428   3.620   4.266 -0.4151 -0.0575  0.0458
  256EMC     O2 3085   2.576   3.519   4.266  0.3748 -0.5932 -0.2264
  256EMC     O3 3086   2.568   3.691   4.427  0.6470  0.5852 -0.1992
  256EMC     H1 3087   2.511   3.805   4.207 -0.0996 -1.6017 -1.0247
  256EMC     H2 3088   2.341   3.816   4.275  0.3520 -1.1353  1.3693
  256EMC     H3 3089   2.386   3.757   4.107  2.1003  2.6465 -1.1482
  256EMC     C4 3090   2.765   3.437   4.157  0.3917  0.0257  0.6814
  256EMC     H4 3091   2.762   3.540   4.345  0.7372  0.1307 -0.3208
  256EMC     H5 3092   2.724   3.646   4.211  1.3231 -0.1835  1.3524
  256EMC     H6 3093   2.735   3.458   4.054 -1.2992 -3.2818  0.3678
  256EMC     H7 3094   2.731   3.337   4.184  0.0820 -0.2079 -0.5045
  256EMC     H8 3095   2.874   3.442   4.146  0.4018 -2.2475 -0.9172
  257EMC     C1 3096   4.077   0.490   0.215 -0.7650 -0.6077  1.1159
  257EMC     C2 3097   3.896   0.250   0.014  0.4468 -0.4276 -0.9337
  257EMC     C3 3098   3.913   0.480   0.040 -0.3429  0.0627 -0.4453
  257EMC     O1 3099   3.938   0.482   0.172  0.1089 -0.2667 -0.2585
  257EMC     O2 3100   3.857   0.365   0.079  0.4812 -0.3165 -0.6312
  257EMC     O3 3101   3.999   0.500   4.449 -0.1203 -0.5073 -0.0752
  257EMC     H1 3102   4.097   0.503   0.321 -0.6849 -1.2060  1.1752
  257EMC     H2 3103   4.130   0.570   0.163 -2.0385  0.3311  1.2109
  257EMC     H3 3104   4.122   0.392   0.202 -1.4225 -0.7747 -0.0934
  257EMC     C4 3105   3.797   0.141   0.057 -0.1198  0.2729  0.4417
  257EMC     H4 3106   3.999   0.233   0.043 -0.2010 -2.8543  0.2536
  257EMC     H5 3107   3.885   0.258   4.402 -1.5142 -0.7981 -0.7958
  257EMC     H6 3108   3.695   0.171   0.034  0.5372  2.3590 -0.0081
  257EMC     H7 3109   3.799   0.103   0.159  2.1960 -2.7233 -0.5615
  257EMC     H8 3110   3.826   0.053   4.495 -0.4414  0.5607 -0.1662
  258EMC     C1 3111   3.619   1.616   2.588 -0.0850  0.4676  0.2574
  258EMC     C2 3112   3.500   1.663   2.985  0.1195  0.4391 -0.0352
  258EMC     C3 3113   3.553   1.512   2.794 -0.1726  0.1291  0.5375
  258EMC     O1 3114   3.644   1.524   2.693  0.5057  0.0714 -0.6449
  258EMC     O2 3115   3.564   1.630   2.859  0.1510 -0.4833  0.4348
  258EMC     O3 3116   3.523   1.404   2.840 -0.6113 -0.4694  0.0429
  258EMC     H1 3117   3.604   1.715   2.631 -1.1436  0.1346  0.7006
  258EMC     H2 3118   3.537   1.600   2.517 -1.3336  2.6904  1.0880
  258EMC     H3 3119   3.708   1.609   2.526  1.1169  0.5077  1.9087
  258EMC     C4 3120   3.564   1.797   3.023  0.1395  0.6891  0.1181
  258EMC     H4 3121   3.528   1.593   3.063  0.8436  2.0940  1.2281
  258EMC     H5 3122   3.392   1.680   2.976 -0.2682 -1.3534  0.8598
  258EMC     H6 3123   3.672   1.786   3.020  0.0382 -0.5487 -2.7511
  258EMC     H7 3124   3.526   1.815   3.124 -0.2970 -0.9127  0.2617
  258EMC     H8 3125   3.531   1.874   2.953  0.8516 -0.0019 -1.0075
  259EMC     C1 3126   3.547   2.410   1.836 -0.3585 -0.2405  0.5723
  259EMC     C2 3127   3.230   2.604   1.684  0.6946  1.1589 -0.0704
  259EMC     C3 3128   3.343   2.400   1.726  0.3282  0.6307 -0.5992
  259EMC     O1 3129   3.408   2.422   1.843 -0.0347  0.0462  0.2857
  259EMC     O2 3130   3.347   2.531   1.708  0.7590  0.0674  0.4211
  259EMC     O3 3131   3.236   2.344   1.728 -0.2967  0.4798  0.0830
  259EMC     H1 3132   3.598   2.464   1.757 -0.2775 -1.1510 -0.0100
  259EMC     H2 3133   3.567   2.304   1.819 -1.4412 -0.2068 -1.0870
  259EMC     H3 3134   3.603   2.434   1.927  1.1841 -0.1884 -0.3545
  259EMC     C4 3135   3.257   2.743   1.649  0.7333 -0.8104 -0.8673
  259EMC     H4 3136   3.157   2.599   1.765 -0.3663 -1.2525 -1.0830
  259EMC     H5 3137   3.188   2.564   1.592 -0.8870  1.8143  0.3312
  259EMC     H6 3138   3.308   2.792   1.731  0.2384 -0.4988 -0.7370
  259EMC     H7 3139   3.158   2.788   1.652 -0.0306 -2.4646  0.5905
  259EMC     H8 3140   3.305   2.771   1.555 -1.0823  2.4702 -0.9586
  260EMC     C1 3141   4.496   2.803   1.444 -0.1961 -0.2438 -0.4439
  260EMC     C2 3142   0.335   2.685   1.682  0.2180  0.3040  0.4988
  260EMC     C3 3143   0.205   2.709   1.487 -1.0619 -0.0299  0.4626
  260EMC     O1 3144   0.081   2.689   1.449 -0.1046  0.3342  0.8452
  260EMC     O2 3145   0.218   2.739   1.621 -0.1601 -0.2554 -0.6667
  260EMC     O3 3146   0.286   2.634   1.435 -0.1271 -0.4749 -0.2565
  260EMC     H1 3147   4.391   2.782   1.423 -0.8118  0.4856  1.7424
  260EMC     H2 3148   0.029   2.860   1.355 -0.6100 -0.3452 -0.6489
  260EMC     H3 3149   0.017   2.858   1.536  0.0958 -4.2957  2.1707
  260EMC     C4 3150   0.370   2.758   1.813  0.0399 -0.8600 -0.3691
  260EMC     H4 3151   0.420   2.701   1.617 -0.0051  2.7015  0.6962
  260EMC     H5 3152   0.321   2.579   1.701 -0.4486 -0.3289 -3.0037
  260EMC     H6 3153   0.471   2.744   1.853 -0.3027 -0.0304  0.8428
  260EMC     H7 3154   0.298   2.751   1.894 -0.9069 -0.9944 -1.2055
  260EMC     H8 3155   0.373   2.866   1.797 -2.5074 -0.5784  0.6820
  261EMC     C1 3156   0.332   1.676   0.808 -0.7554 -0.4156 -1.1069
  261EMC     C2 3157   0.663   1.614   0.799 -0.4167  0.1260  0.4925
  261EMC     C3 3158   0.495   1.649   0.967  0.1361  0.4046  0.2715
  261EMC     O1 3159   0.405   1.590   0.893 -0.2183  0.9585 -0.1004
  261EMC     O2 3160   0.571   1.561   0.897  1.2206 -0.0250 -0.4555
  261EMC     O3 3161   0.515   1.769   0.974  0.1032 -0.6947  0.2175
  261EMC     H1 3162   0.256   1.731   0.864  0.3265  0.0688 -0.0733
  261EMC     H2 3163   0.289   1.607   0.735 -1.7633 -2.0526  0.9257
  261EMC     H3 3164   0.387   1.756   0.759  1.0380 -2.0422 -1.8717
  261EMC     C4 3165   0.769   1.508   0.768 -0.3642 -0.5809 -0.5504
  261EMC     H4 3166   0.711   1.703   0.839  0.4482  0.1177 -0.4748
  261EMC     H5 3167   0.608   1.648   0.711 -1.0961 -0.9106  0.4906
  261EMC     H6 3168   0.805   1.537   0.669  1.3311 -2.4838 -0.5508
  261EMC     H7 3169   0.727   1.409   0.754  0.5398 -0.8532 -1.4649
  261EMC     H8 3170   0.866   1.522   0.816 -0.8207  0.0711  0.2165
  262EMC     C1 3171   1.397   2.937   2.533 -0.1256  0.3951  0.6212
  262EMC     C2 3172   1.421   2.461   2.496 -1.0337  0.4055  0.2918
  262EMC     C3 3173   1.413   2.693   2.518 -0.1813 -0.4956 -0.5372
  262EMC     O1 3174   1.348   2.808   2.491  0.4048 -0.8116 -0.1936
  262EMC     O2 3175   1.348   2.580   2.483 -0.2477 -0.2895  0.1965
  262EMC     O3 3176   1.528   2.689   2.574 -0.0520 -0.0140  0.1501
  262EMC     H1 3177   1.470   2.971   2.459 -0.2750 -1.2504 -0.3230
  262EMC     H2 3178   1.444   2.930   2.631 -2.1783  0.6290  1.6623
  262EMC     H3 3179   1.313   3.006   2.539 -0.4589  0.2760 -1.6294
  262EMC     C4 3180   1.380   2.355   2.405 -0.6312  0.3021 -0.0812
  262EMC     H4 3181   1.421   2.420   2.597  1.3988 -1.3268 -0.3097
  262EMC     H5 3182   1.525   2.465   2.464 -1.1372 -0.2789 -0.1569
  262EMC     H6 3183   1.394   2.378   2.299  0.4913 -1.2050 -0.2868
  262EMC     H7 3184   1.273   2.335   2.408 -0.8707  1.6225  1.1669
  262EMC     H8 3185   1.429   2.259   2.419  0.4272  0.9941  1.1492
  263EMC     C1 3186   2.729   2.598   0.763 -0.4147  0.6134  0.0019
  263EMC     C2 3187   3.038   2.697   0.582 -0.4211 -0.4790  0.0032
  263EMC     C3 3188   2.876   2.787   0.732  0.0324 -0.8714 -1.1256
  263EMC     O1 3189   2.757   2.721   0.701  0.6311  0.5780  0.0035
  263EMC     O2 3190   2.914   2.761   0.608  0.1429 -0.4587 -0.0036
  263EMC     O3 3191   2.941   2.756   0.832  0.4447  0.9337  0.5681
  263EMC     H1 3192   2.646   2.552   0.709  0.1355 -1.5754  0.9483
  263EMC     H2 3193   2.703   2.622   0.866 -0.1713  4.3592 -0.6409
  263EMC     H3 3194   2.808   2.524   0.753 -0.2461  0.3872  2.4714
  263EMC     C4 3195   3.050   2.645   0.438 -0.1420 -0.2166 -0.4776
  263EMC     H4 3196   3.030   2.604   0.638 -1.2346 -0.8070 -0.6308
  263EMC     H5 3197   3.124   2.755   0.615  0.4254 -0.7589 -1.6272
  263EMC     H6 3198   2.971   2.575   0.412 -0.3611 -0.3179  0.4433
  263EMC     H7 3199   3.136   2.579   0.428 -0.0138 -0.5654  2.3259
  263EMC     H8 3200   3.058   2.727   0.367  2.6537  0.1635  0.1479
  264EMC     C1 3201   1.034   1.912   1.983  0.2152  0.4735  0.0885
  264EMC     C2 3202   0.953   1.678   2.308 -0.4831  0.8083 -0.6009
  264EMC     C3 3203   0.917   1.886   2.193 -1.0034  0.4719 -0.2747
  264EMC     O1 3204   0.940   1.848   2.062  0.5191 -0.4907  0.2294
  264EMC     O2 3205   0.910   1.751   2.198  0.0418 -0.2296 -0.7158
  264EMC     O3 3206   1.000   1.945   2.268  0.2439 -0.1424 -0.3720
  264EMC     H1 3207   1.021   1.879   1.880 -0.8985 -0.5734  0.5418
  264EMC     H2 3208   1.138   1.890   2.008  0.9319  0.8979 -2.3351
  264EMC     H3 3209   1.017   2.019   1.983  0.8158  0.5747  0.6344
  264EMC     C4 3210   0.948   1.527   2.285  0.9632 -0.0464 -0.1054
  264EMC     H4 3211   0.893   1.707   2.395 -1.3789  1.4177 -1.4044
  264EMC     H5 3212   1.055   1.700   2.340 -0.8068  0.0785  1.0538
  264EMC     H6 3213   1.021   1.481   2.351  1.0546  0.9781  0.5266
  264EMC     H7 3214   0.986   1.508   2.185  2.6771  1.2789  0.2491
  264EMC     H8 3215   0.850   1.481   2.294  0.6804  0.6442  0.4473
  265EMC     C1 3216   2.002   1.358   3.368 -0.0315 -0.1627 -0.0710
  265EMC     C2 3217   2.366   1.224   3.273  0.4820  0.0026 -0.0090
  265EMC     C3 3218   2.127   1.175   3.281  0.1175  0.1155  0.2290
  265EMC     O1 3219   2.089   1.246   3.388  0.4050 -0.8760  0.2592
  265EMC     O2 3220   2.245   1.192   3.347 -0.4222 -1.2123  0.1175
  265EMC     O3 3221   2.096   1.201   3.162  0.0117 -0.5533 -0.6699
  265EMC     H1 3222   1.916   1.338   3.305 -1.2874  1.0594  1.1925
  265EMC     H2 3223   2.072   1.435   3.336  0.6785 -0.1607  1.3816
  265EMC     H3 3224   1.951   1.397   3.456 -4.0980 -0.1218 -2.2081
  265EMC     C4 3225   2.430   1.109   3.199 -0.1893  0.2833 -0.7155
  265EMC     H4 3226   2.441   1.268   3.338 -1.1555  3.3622 -0.1801
  265EMC     H5 3227   2.339   1.308   3.209  1.8192  0.8790  0.5347
  265EMC     H6 3228   2.361   1.079   3.120  1.5889 -0.8753 -1.9148
  265EMC     H7 3229   2.449   1.024   3.264 -1.7149 -1.1178 -2.0104
  265EMC     H8 3230   2.521   1.154   3.161  0.5417 -0.2455  0.3573
  266EMC     C1 3231   3.990   0.864   3.392  0.1624  0.4243  0.4654
  266EMC     C2 3232   3.757   0.807   3.111 -0.4119 -0.0871  0.5565
  266EMC     C3 3233   4.001   0.818   3.164  0.4537  0.6218 -0.0611
  266EMC     O1 3234   3.993   0.915   3.257 -0.4669 -0.1045  0.0931
  266EMC     O2 3235   3.889   0.877   3.112  0.6204  0.1232 -0.2261
  266EMC     O3 3236   4.010   0.694   3.186 -0.3034 -0.1358 -0.3283
  266EMC     H1 3237   4.083   0.811   3.415 -0.2503  0.0796  1.4269
  266EMC     H2 3238   3.914   0.786   3.387 -3.5166  3.8318 -3.6919
  266EMC     H3 3239   3.960   0.943   3.461  1.7664  0.4253  1.2053
  266EMC     C4 3240   3.686   0.864   2.986  0.3629 -0.2994  0.2726
  266EMC     H4 3241   3.699   0.829   3.201  0.0855 -2.6025  1.5820
  266EMC     H5 3242   3.774   0.700   3.096  0.9512 -0.3042  2.9751
  266EMC     H6 3243   3.760   0.871   2.905 -1.2539 -0.0230 -1.2539
  266EMC     H7 3244   3.661   0.970   2.996  2.1291  0.2013 -0.1455
  266EMC     H8 3245   3.604   0.810   2.938  1.0703  1.0232 -2.7188
  267EMC     C1 3246   0.356   0.155   1.184  0.6305  0.8032  0.7142
  267EMC     C2 3247   0.207   0.464   1.456 -0.3365 -0.5452  0.2011
  267EMC     C3 3248   0.352   0.304   1.362  0.2695 -0.1693 -0.3010
  267EMC     O1 3249   0.294   0.209   1.294  0.2508 -0.4739 -0.4677
  267EMC     O2 3250   0.236   0.333   1.418  0.8497 -0.3366  0.8637
  267EMC     O3 3251   0.437   0.380   1.315 -0.3047 -0.4009 -0.0051
  267EMC     H1 3252   0.382   0.237   1.117 -0.0735 -0.7530 -1.5779
  267EMC     H2 3253   0.293   0.078   1.140 -1.2526  2.7260 -0.1197
  267EMC     H3 3254   0.443   0.111   1.233  1.5740  0.1023 -1.4730
  267EMC     C4 3255   0.062   0.490   1.475  0.7873 -0.3196  0.2244
  267EMC     H4 3256   0.239   0.531   1.376 -0.9418  0.2668  0.6303
  267EMC     H5 3257   0.260   0.483   1.548  1.9808  1.5345 -1.4389
  267EMC     H6 3258   0.048   0.598   1.486  1.3209 -0.3092  0.8950
  267EMC     H7 3259   0.019   0.442   1.564 -0.7566  1.9031  0.7736
  267EMC     H8 3260   0.014   0.455   1.384  2.6749 -0.5779 -0.7180
  268EMC     C1 3261   4.250   2.256   3.986  0.0758  0.0649  0.1053
  268EMC     C2 3262   4.397   1.964   4.225 -0.4670  0.5312  0.1512
  268EMC     C3 3263   4.286   2.162   4.200  0.4114 -0.3381 -0.4666
  268EMC     O1 3264   4.329   2.239   4.101  0.2118  0.8849 -0.0466
  268EMC     O2 3265   4.404   2.103   4.224 -0.3397 -0.3466 -0.7549
  268EMC     O3 3266   4.174   2.103   4.204 -0.3398 -0.3076 -0.1032
  268EMC     H1 3267   4.250   2.362   3.959  0.1193  0.2641  0.8474
  268EMC     H2 3268   4.148   2.217   3.990 -0.3005  1.0034 -0.0588
  268EMC     H3 3269   4.296   2.208   3.900  2.3584  2.8532 -0.3748
  268EMC     C4 3270   0.046   1.897   4.220  0.4987  0.2329 -0.4528
  268EMC     H4 3271   4.363   1.937   4.125 -4.2209  3.0610  0.5483
  268EMC     H5 3272   4.341   1.921   4.308  0.5058  0.3756  0.7431
  268EMC     H6 3273   0.047   1.788   4.217  2.5704  0.1845  0.0604
  268EMC     H7 3274   0.099   1.931   4.309  1.0204 -0.4962 -0.4701
  268EMC     H8 3275   0.112   1.913   4.134  0.6935  1.6529 -0.0586
  269EMC     C1 3276   3.051   1.062   2.530 -0.4132  0.5856 -0.5103
  269EMC     C2 3277   2.736   1.297   2.681  0.2039 -0.0859 -0.7104
  269EMC     C3 3278   2.831   1.155   2.515  0.4984 -0.0907  0.1595
  269EMC     O1 3279   2.924   1.079   2.583  0.3057  0.2488  0.7515
  269EMC     O2 3280   2.782   1.171   2.637 -0.0127 -0.2897 -0.0035
  269EMC     O3 3281   2.861   1.243   2.429 -0.6210 -0.2822  0.3781
  269EMC     H1 3282   3.108   0.981   2.576 -2.1275  0.8992  2.4746
  269EMC     H2 3283   3.114   1.150   2.531 -1.4120  1.3212  0.3964
  269EMC     H3 3284   3.054   1.033   2.425  1.9030 -0.6361 -0.1661
  269EMC     C4 3285   2.644   1.285   2.810 -0.0577  0.6648  0.4121
  269EMC     H4 3286   2.673   1.338   2.602  0.7194  0.1597 -0.9916
  269EMC     H5 3287   2.808   1.377   2.694  2.6872 -1.8212 -2.7335
  269EMC     H6 3288   2.597   1.381   2.832  0.6052  1.2467 -0.6271
  269EMC     H7 3289   2.696   1.261   2.903  2.8264  1.2710 -0.9347
  269EMC     H8 3290   2.565   1.211   2.800  0.9861 -0.1689 -2.9845
  270EMC     C1 3291   0.053   0.526   1.905 -0.8167  0.1453 -0.2234
  270EMC     C2 3292   4.428   0.892   2.041  0.1534 -0.7116 -0.2709
  270EMC     C3 3293   4.381   0.690   1.908 -0.2641  0.1537 -0.2593
  270EMC     O1 3294   0.003   0.649   1.949  0.0936 -0.3617 -0.1894
  270EMC     O2 3295   4.388   0.827   1.920  0.5011  0.3858  0.4973
  270EMC     O3 3296   4.303   0.631   1.839  0.0182  0.2026  0.0755
  270EMC     H1 3297   0.131   0.512   1.980  1.8843  1.8229 -2.5362
  270EMC     H2 3298   0.088   0.523   1.802  0.4075 -3.0213  0.1861
  270EMC     H3 3299   4.466   0.458   1.924 -0.3986  0.0767  1.5614
  270EMC     C4 3300   4.396   1.038   2.028  0.6062 -0.1486  0.3637
  270EMC     H4 3301   0.037   0.880   2.068 -0.4071 -3.4209  0.9597
  270EMC     H5 3302   4.370   0.838   2.116  0.2088  1.4724  1.4543
  270EMC     H6 3303   4.295   1.043   1.989  0.2353 -1.1428  1.1548
  270EMC     H7 3304   4.459   1.080   1.949  0.0697  1.2971  0.6797
  270EMC     H8 3305   4.414   1.094   2.119  1.2435 -1.8091  1.2885
  271EMC     C1 3306   0.551   2.533   3.350  0.4523  0.2175 -0.1933
  271EMC     C2 3307   0.554   2.906   3.263  0.5820  0.1479  0.8827
  271EMC     C3 3308   0.416   2.705   3.255 -0.2916  0.8068 -0.7648
  271EMC     O1 3309   0.499   2.600   3.231 -0.0581  0.1107  0.4129
  271EMC     O2 3310   0.514   2.784   3.197  0.4297  0.6139  0.5326
  271EMC     O3 3311   0.374   2.729   3.366 -0.3426  0.2269 -1.0416
  271EMC     H1 3312   0.618   2.451   3.325  1.7715  0.3811  2.4667
  271EMC     H2 3313   0.464   2.504   3.410  0.0934  1.8432  0.1401
  271EMC     H3 3314   0.610   2.610   3.401 -1.2817  1.3332  0.2441
  271EMC     C4 3315   0.678   2.964   3.193 -0.2082 -0.3246  0.7601
  271EMC     H4 3316   0.576   2.885   3.368  1.8869 -0.0533  0.5796
  271EMC     H5 3317   0.472   2.978   3.254 -0.1184 -0.5495  1.4480
  271EMC     H6 3318   0.641   2.981   3.092 -0.3283 -0.8501  0.7143
  271EMC     H7 3319   0.760   2.894   3.179  1.6690  1.6424  1.2712
  271EMC     H8 3320   0.711   3.062   3.229 -0.1954  0.1724 -0.5292
  272EMC     C1 3321   2.355   3.795   0.148  0.3873  0.0901  0.1795
  272EMC     C2 3322   1.990   3.706   0.053 -0.3012 -0.1578  0.4322
  272EMC     C3 3323   2.160   3.671   0.209 -0.1976  0.0076 -0.5134
  272EMC     O1 3324   2.219   3.790   0.185  0.4125 -0.3896  0.8239
  272EMC     O2 3325   2.062   3.750   0.163 -0.3720 -0.4008  0.2426
  272EMC     O3 3326   2.212   3.571   0.165 -0.2978 -0.2728 -0.1663
  272EMC     H1 3327   2.362   3.779   0.040  1.4110 -1.1208  0.4083
  272EMC     H2 3328   2.402   3.709   0.194 -2.0496 -0.8317  1.1342
  272EMC     H3 3329   2.406   3.880   0.192  1.5736 -0.5332  0.0408
  272EMC     C4 3330   1.850   3.789   0.053 -0.0799 -0.2786  0.4818
  272EMC     H4 3331   1.984   3.599   0.068  1.3014 -0.8148 -2.7693
  272EMC     H5 3332   2.044   3.708   4.454 -1.7302 -1.2999 -0.4416
  272EMC     H6 3333   1.805   3.768   4.452 -1.1641  0.9531  0.6869
  272EMC     H7 3334   1.862   3.896   0.073 -0.8114  0.2111 -1.5231
  272EMC     H8 3335   1.792   3.757   0.140 -0.8958 -2.1504 -0.6982
  273EMC     C1 3336   3.668   1.515   3.399  0.9036  0.3281  0.3884
  273EMC     C2 3337   3.454   1.238   3.621 -0.3979  0.1162 -0.5143
  273EMC     C3 3338   3.613   1.417   3.601  1.6804  0.2655 -0.9876
  273EMC     O1 3339   3.623   1.403   3.466  0.6261 -0.2048 -0.2190
  273EMC     O2 3340   3.482   1.378   3.623  0.5298  0.6555 -0.3434
  273EMC     O3 3341   3.661   1.513   3.655  0.4849  0.1621 -0.4847
  273EMC     H1 3342   3.773   1.543   3.409  0.5710  0.6459  3.9641
  273EMC     H2 3343   3.612   1.604   3.426 -2.2847 -1.1502 -0.7536
  273EMC     H3 3344   3.632   1.499   3.297  2.6536  0.6320 -0.3043
  273EMC     C4 3345   3.313   1.216   3.565  0.2975 -0.5020 -0.4462
  273EMC     H4 3346   3.464   1.198   3.722  2.8793  1.9702  0.0146
  273EMC     H5 3347   3.516   1.179   3.555 -2.6931 -2.5301 -0.4836
  273EMC     H6 3348   3.250   1.302   3.590 -0.1531 -0.5423 -1.3940
  273EMC     H7 3349   3.267   1.129   3.611  0.2863  0.3631  1.2590
  273EMC     H8 3350   3.308   1.205   3.457 -0.4447  1.1158 -0.6084
  274EMC     C1 3351   1.619   3.343   0.667  0.4413  0.0185  0.2792
  274EMC     C2 3352   1.487   3.785   0.650  0.0313 -0.4270  0.1132
  274EMC     C3 3353   1.513   3.546   0.655  0.6220 -0.2529  0.4481
  274EMC     O1 3354   1.602   3.471   0.721  0.3150  0.0536 -0.0981
  274EMC     O2 3355   1.568   3.669   0.669  0.5375 -0.0560 -0.5402
  274EMC     O3 3356   1.443   3.511   0.555  0.6347  0.0339 -0.2339
  274EMC     H1 3357   1.699   3.293   0.722  1.6926  0.2480 -1.2584
  274EMC     H2 3358   1.664   3.351   0.567 -0.5193  2.4647 -0.0065
  274EMC     H3 3359   1.529   3.283   0.658  0.2138  0.1894  1.3605
  274EMC     C4 3360   1.585   3.911   0.669  0.4621  0.1713 -0.1306
  274EMC     H4 3361   1.411   3.793   0.728 -0.5638 -1.7423 -0.3074
  274EMC     H5 3362   1.445   3.795   0.551 -4.5878 -0.2516  1.8579
  274EMC     H6 3363   1.529   4.000   0.642 -0.8662  0.2358  2.4996
  274EMC     H7 3364   1.681   3.904   0.616  0.4202 -0.9205 -0.0782
  274EMC     H8 3365   1.598   3.918   0.777  1.3860  0.7172 -0.2584
  275EMC     C1 3366   4.127   4.084   3.735  0.1743 -0.5188 -0.2936
  275EMC     C2 3367   4.493   3.930   3.508  0.2699  0.8074 -0.1528
  275EMC     C3 3368   4.344   4.030   3.653  0.2802  0.0003 -0.3319
  275EMC     O1 3369   4.227   3.988   3.712 -1.0436  0.0298  0.5058
  275EMC     O2 3370   4.386   3.921   3.591  0.2438 -1.0099  0.6964
  275EMC     O3 3371   4.374   4.145   3.630  0.1493 -0.7610 -0.9106
  275EMC     H1 3372   4.026   4.044   3.729  0.1283 -0.2755 -1.2900
  275EMC     H2 3373   4.120   4.157   3.655  0.1889 -1.0238 -0.7573
  275EMC     H3 3374   4.132   4.127   3.835  1.1684  0.6597 -0.8270
  275EMC     C4 3375   0.073   3.803   3.515  0.0583  0.1212  0.2965
  275EMC     H4 3376   0.066   4.009   3.538  1.7560 -1.5592  3.3696
  275EMC     H5 3377   4.454   3.948   3.408  0.8531  0.7243 -0.4011
  275EMC     H6 3378   0.132   3.789   3.425 -0.4201 -1.0094  0.1408
  275EMC     H7 3379   0.003   3.720   3.503 -0.2537  0.6061 -1.5575
  275EMC     H8 3380   0.131   3.802   3.607  0.3530 -0.2184  0.1124
  276EMC     C1 3381   1.819   3.273   0.089  0.4052 -0.2906  0.0861
  276EMC     C2 3382   1.775   3.595   0.400  0.1509  0.8400  0.2107
  276EMC     C3 3383   1.741   3.461   0.211 -0.0694 -0.5187  0.2606
  276EMC     O1 3384   1.839   3.399   0.157 -0.2155 -0.0235  0.0522
  276EMC     O2 3385   1.822   3.548   0.272 -0.2146  0.1638  0.0111
  276EMC     O3 3386   1.647   3.403   0.265 -0.0013  0.1768 -0.1459
  276EMC     H1 3387   1.792   3.191   0.157 -0.9629  1.2160  1.4335
  276EMC     H2 3388   1.908   3.236   0.038  0.7296  2.0312 -1.1650
  276EMC     H3 3389   1.737   3.277   0.017  0.2155 -2.1971  0.1365
  276EMC     C4 3390   1.848   3.723   0.444 -0.4786  0.2740  0.7693
  276EMC     H4 3391   1.779   3.526   0.484 -0.0146  1.0489  0.3909
  276EMC     H5 3392   1.668   3.616   0.388  0.0209  0.0700 -0.0942
  276EMC     H6 3393   1.842   3.806   0.374  0.9652 -0.0388  0.2409
  276EMC     H7 3394   1.953   3.696   0.457 -0.1832 -0.3691 -2.1843
  276EMC     H8 3395   1.799   3.753   0.537 -3.4561 -0.0477 -0.5893
  277EMC     C1 3396   4.436   2.504   3.049 -0.4609  0.5875  1.2801
  277EMC     C2 3397   4.357   2.065   3.132 -0.5461 -0.1729 -0.1649
  277EMC     C3 3398   4.355   2.292   3.051  1.1266  0.1306 -0.0489
  277EMC     O1 3399   4.459   2.366   3.032 -0.5565  0.0024 -0.6136
  277EMC     O2 3400   4.396   2.167   3.041 -0.1963 -0.4519 -0.1779
  277EMC     O3 3401   4.242   2.334   3.083  0.8587 -0.0111  0.1799
  277EMC     H1 3402   4.359   2.551   2.987  0.6564  3.4138  1.8650
  277EMC     H2 3403   0.030   2.561   3.027 -0.7654  0.7091  0.3028
  277EMC     H3 3404   4.407   2.518   3.153 -3.4212 -2.3119  1.0271
  277EMC     C4 3405   4.444   1.942   3.109  0.5197 -0.6540  0.2744
  277EMC     H4 3406   4.252   2.042   3.112 -0.3911  0.4744 -1.8509
  277EMC     H5 3407   4.357   2.094   3.237 -0.2150 -2.0663  0.4081
  277EMC     H6 3408   4.423   1.906   3.008 -1.6264 -0.0660  0.4475
  277EMC     H7 3409   4.412   1.871   3.185  0.2894  1.4948  2.2752
  277EMC     H8 3410   0.052   1.974   3.112  0.4547 -0.1801 -1.2898
  278EMC     C1 3411   4.112   0.780   2.253  0.1211 -0.0465 -0.1236
  278EMC     C2 3412   4.198   0.374   2.148  0.6252  0.1686  0.4141
  278EMC     C3 3413   4.086   0.582   2.112 -0.0039 -0.3345 -0.0667
  278EMC     O1 3414   4.141   0.700   2.136 -0.2170  0.1701 -0.5492
  278EMC     O2 3415   4.137   0.499   2.197  0.4732 -0.3404  0.1512
  278EMC     O3 3416   4.059   0.552   1.995 -0.1959  0.1241  0.0053
  278EMC     H1 3417   4.027   0.729   2.298  0.1978  0.3902  0.5322
  278EMC     H2 3418   4.084   0.883   2.229 -0.3678 -0.2656 -0.5038
  278EMC     H3 3419   4.196   0.795   2.321  0.5699 -0.2283 -0.6287
  278EMC     C4 3420   4.174   0.269   2.263  0.0288 -0.4924  0.3358
  278EMC     H4 3421   4.301   0.390   2.114  0.6167  1.7757  1.0420
  278EMC     H5 3422   4.140   0.348   2.059  1.5594  4.0768 -1.5514
  278EMC     H6 3423   4.198   0.171   2.221  2.3486  0.3778 -0.5430
  278EMC     H7 3424   4.067   0.267   2.284  0.3514 -1.4691  2.0016
  278EMC     H8 3425   4.235   0.281   2.353  0.7921 -1.1351 -0.0794
  279EMC     C1 3426   2.270   4.219   1.138  0.4196  0.9895  0.8907
  279EMC     C2 3427   1.954   4.233   0.922 -0.3930 -0.1195 -0.2550
  279EMC     C3 3428   2.092   4.086   1.055  0.7069 -0.3948  0.3189
  279EMC     O1 3429   2.196   4.163   1.029 -0.0355 -0.0090 -0.1970
  279EMC     O2 3430   2.062   4.139   0.929  0.1087  0.3608 -0.6328
  279EMC     O3 3431   2.011   4.108   1.152 -0.7158  0.4632 -0.2299
  279EMC     H1 3432   2.346   4.281   1.091 -0.0338  0.2067 -0.9635
  279EMC     H2 3433   2.319   4.142   1.199 -0.1269  1.5404  2.0610
  279EMC     H3 3434   2.205   4.279   1.202 -2.3131  0.7066 -1.4114
  279EMC     C4 3435   1.913   4.271   0.782 -0.6646 -0.1479  0.1515
  279EMC     H4 3436   1.989   4.326   0.969  2.0571  0.0603 -2.2399
  279EMC     H5 3437   1.867   4.193   0.973  0.9866 -2.5972  0.2796
  279EMC     H6 3438   1.989   4.332   0.732 -1.6957  0.8356 -0.2602
  279EMC     H7 3439   1.826   4.337   0.783 -1.1735 -0.6377 -2.4625
  279EMC     H8 3440   1.896   4.182   0.722 -2.5993  0.3925 -0.1594
  280EMC     C1 3441   0.227   3.019   2.641 -0.5602 -0.0322 -1.3631
  280EMC     C2 3442   0.398   3.165   2.326 -0.5537 -0.0726 -0.0046
  280EMC     C3 3443   0.211   3.170   2.470 -0.1051  0.4125 -0.0594
  280EMC     O1 3444   0.215   3.047   2.506 -0.5003  0.3865 -0.0022
  280EMC     O2 3445   0.274   3.115   2.358  0.0862 -0.1738  0.6013
  280EMC     O3 3446   0.266   3.265   2.538  0.2236  0.0514 -0.5763
  280EMC     H1 3447   0.130   3.026   2.690  0.3699 -2.0197  0.9818
  280EMC     H2 3448   0.315   3.060   2.689  0.4586 -0.8718 -2.4288
  280EMC     H3 3449   0.242   2.911   2.637  1.7173  0.1602  0.2114
  280EMC     C4 3450   0.413   3.160   2.170  0.1458 -0.5994  0.3124
  280EMC     H4 3451   0.480   3.101   2.361 -0.5674 -0.0473  0.0740
  280EMC     H5 3452   0.415   3.268   2.357 -1.0073  0.0053 -0.0075
  280EMC     H6 3453   0.409   3.061   2.123 -0.0145 -0.1569 -0.6215
  280EMC     H7 3454   0.509   3.197   2.135 -0.3237  0.5699  0.2120
  280EMC     H8 3455   0.343   3.230   2.124  1.1858  0.8288  0.8580
  281EMC     C1 3456   2.035   1.612   3.138  0.3351  0.2481  0.5925
  281EMC     C2 3457   1.756   1.814   2.966 -1.4227 -0.8716 -0.6711
  281EMC     C3 3458   1.998   1.785   2.974  0.5921  0.1532 -0.0490
  281EMC     O1 3459   1.994   1.656   3.011 -0.2228 -0.4123  0.6435
  281EMC     O2 3460   1.872   1.734   2.948  0.1497  0.1064  0.8910
  281EMC     O3 3461   2.012   1.882   3.049  0.5824  0.0174  0.1634
  281EMC     H1 3462   2.096   1.686   3.191  2.1595 -1.3113  0.7959
  281EMC     H2 3463   2.107   1.531   3.132 -0.8954 -0.7762 -1.1650
  281EMC     H3 3464   1.943   1.589   3.192 -0.6347  2.7500  0.1436
  281EMC     C4 3465   1.647   1.723   2.925 -0.2444  0.2651  0.0607
  281EMC     H4 3466   1.763   1.903   2.903  2.1196  0.6658  1.6014
  281EMC     H5 3467   1.745   1.833   3.073  2.2654 -2.5361  0.1415
  281EMC     H6 3468   1.624   1.651   3.003  2.8436  0.8962  1.6833
  281EMC     H7 3469   1.672   1.674   2.831  0.1784  2.4020 -1.0019
  281EMC     H8 3470   1.550   1.771   2.911 -0.4609 -0.8980 -3.2499
  282EMC     C1 3471   3.921   3.466   3.044  0.3755 -0.5450  0.4395
  282EMC     C2 3472   3.519   3.377   2.946 -0.2515 -0.0912  0.1010
  282EMC     C3 3473   3.700   3.532   2.988  0.0426 -0.0679 -0.9444
  282EMC     O1 3474   3.787   3.440   3.033  0.4696  0.0472 -0.4001
  282EMC     O2 3475   3.567   3.503   2.991 -0.8323 -0.7956 -1.0447
  282EMC     O3 3476   3.725   3.654   2.997 -0.7614  0.9168 -0.1473
  282EMC     H1 3477   3.983   3.399   3.104  1.6212 -0.3576 -0.5841
  282EMC     H2 3478   3.942   3.569   3.072 -0.7806 -0.0162 -0.5393
  282EMC     H3 3479   3.969   3.450   2.947  2.2281 -0.0679  1.2367
  282EMC     C4 3480   3.370   3.380   2.921 -0.4610 -0.7593 -0.2504
  282EMC     H4 3481   3.534   3.300   3.022 -0.2518 -0.9607 -0.7620
  282EMC     H5 3482   3.564   3.336   2.856 -1.5471 -0.2663 -0.4893
  282EMC     H6 3483   3.309   3.444   2.985 -2.7304 -3.1087  0.1192
  282EMC     H7 3484   3.333   3.278   2.934  0.5869 -0.9584  1.4360
  282EMC     H8 3485   3.335   3.406   2.821 -0.8178 -0.4164 -0.0426
  283EMC     C1 3486   3.456   4.045   0.710 -0.5867  0.2590 -0.1830
  283EMC     C2 3487   3.091   4.167   0.571  0.9458  0.1983 -0.2287
  283EMC     C3 3488   3.296   4.083   0.541 -0.3777 -1.2153 -0.1273
  283EMC     O1 3489   3.388   4.125   0.624  0.5912 -0.4237 -0.7987
  283EMC     O2 3490   3.217   4.191   0.541  0.3768 -0.0481 -0.2165
  283EMC     O3 3491   3.265   3.966   0.520 -0.2469 -0.8940  0.3392
  283EMC     H1 3492   3.485   4.103   0.798  0.1253 -0.1648 -0.1300
  283EMC     H2 3493   3.549   4.010   0.665  0.5718 -0.0690  2.2775
  283EMC     H3 3494   3.391   3.960   0.729 -0.7966  0.6701  1.0584
  283EMC     C4 3495   3.006   4.289   0.551 -0.9881  0.1610 -0.2609
  283EMC     H4 3496   3.069   4.122   0.668 -0.8390  1.3208 -0.0651
  283EMC     H5 3497   3.053   4.091   0.502  1.0240  1.1847 -1.3834
  283EMC     H6 3498   2.901   4.268   0.572  0.1737 -3.6937  3.0726
  283EMC     H7 3499   3.010   4.335   0.453  0.8417  1.4720  0.3732
  283EMC     H8 3500   3.041   4.363   0.623  0.8559 -1.8174  1.0398
  284EMC     C1 3501   1.586   0.717   0.286 -0.9131  0.0142  0.0475
  284EMC     C2 3502   1.914   0.605   0.142 -0.2840 -0.5746  0.0632
  284EMC     C3 3503   1.805   0.791   0.244  0.1270 -1.0529 -0.4448
  284EMC     O1 3504   1.679   0.781   0.202 -0.4956 -1.1938  0.2767
  284EMC     O2 3505   1.826   0.720   0.134  0.2760  0.2652  0.6119
  284EMC     O3 3506   1.845   0.760   0.357  0.1149  0.9447  0.4198
  284EMC     H1 3507   1.526   0.667   0.210  0.3064 -0.5905 -0.5495
  284EMC     H2 3508   1.528   0.784   0.350 -1.6488 -0.0743 -0.5161
  284EMC     H3 3509   1.624   0.630   0.340 -1.3104  0.4524  1.0674
  284EMC     C4 3510   1.910   0.525   0.014 -1.1578 -0.2831 -0.6687
  284EMC     H4 3511   1.884   0.545   0.227  1.4706  0.1520  1.2631
  284EMC     H5 3512   2.017   0.637   0.159 -1.0725  1.7657  0.8057
  284EMC     H6 3513   1.984   0.445   0.016 -0.3153  0.4963  1.1085
  284EMC     H7 3514   1.927   0.586   4.421 -0.6412  0.9795  0.2703
  284EMC     H8 3515   1.814   0.475   0.014 -0.4129 -1.7760 -1.2151
  285EMC     C1 3516   0.964   0.520   4.356  0.2333 -0.4713 -0.2820
  285EMC     C2 3517   0.571   0.310   0.038  0.1512  0.0495 -0.1803
  285EMC     C3 3518   0.760   0.413   4.422 -0.4383  0.1861  0.1485
  285EMC     O1 3519   0.869   0.485   4.455  0.0120 -0.1466 -0.1029
  285EMC     O2 3520   0.678   0.406   0.026  1.3398  0.3532 -0.8084
  285EMC     O3 3521   0.738   0.357   4.316 -1.1945 -0.5423  0.1462
  285EMC     H1 3522   0.907   0.548   4.267 -2.1148  1.3775  1.6716
  285EMC     H2 3523   1.032   0.444   4.317  0.8747 -0.3602  0.5821
  285EMC     H3 3524   1.020   0.610   4.382  1.0278 -1.1377  0.3738
  285EMC     C4 3525   0.529   0.323   0.179 -0.2516 -0.2648 -0.7853
  285EMC     H4 3526   0.614   0.212   0.016 -3.0859 -1.5977  0.2290
  285EMC     H5 3527   0.492   0.346   4.468 -1.7187 -1.6816  1.0105
  285EMC     H6 3528   0.607   0.295   0.251  1.0605 -0.0878 -2.0980
  285EMC     H7 3529   0.438   0.268   0.203  0.3864 -0.3076  1.8153
  285EMC     H8 3530   0.503   0.425   0.206 -0.4950 -1.2564  3.4779
  286EMC     C1 3531   2.131   0.591   3.234  0.5086  0.7058 -0.2136
  286EMC     C2 3532   2.277   0.540   2.860  0.2585  0.3916 -0.3784
  286EMC     C3 3533   2.090   0.538   3.001  1.2279 -0.0716 -0.7296
  286EMC     O1 3534   2.047   0.584   3.118  0.0040  0.7219 -0.1521
  286EMC     O2 3535   2.210   0.579   2.980  0.1221 -0.2029  0.0275
  286EMC     O3 3536   2.006   0.523   2.915 -0.0370  0.6137 -0.0215
  286EMC     H1 3537   2.180   0.501   3.270 -1.7173 -0.1926  0.7543
  286EMC     H2 3538   2.068   0.613   3.320  1.3756  1.7631  0.1748
  286EMC     H3 3539   2.203   0.672   3.225  1.5289 -0.1142  0.3679
  286EMC     C4 3540   2.419   0.599   2.859 -0.7877 -0.2654  1.1611
  286EMC     H4 3541   2.210   0.575   2.781 -1.2184 -0.9582  0.2191
  286EMC     H5 3542   2.272   0.431   2.854 -3.0106  0.4327 -0.2809
  286EMC     H6 3543   2.493   0.559   2.928  3.2931 -0.7929 -3.0289
  286EMC     H7 3544   2.402   0.705   2.874  1.1793  0.1720  0.5521
  286EMC     H8 3545   2.457   0.589   2.757  0.8259  1.5372  1.5292
  287EMC     C1 3546   3.941   2.348   4.340 -0.2324  0.7600 -0.0697
  287EMC     C2 3547   3.757   2.359   0.178  0.4874 -0.5228  0.2109
  287EMC     C3 3548   3.932   2.266   0.063 -0.1707 -0.0325 -0.7745
  287EMC     O1 3549   3.987   2.361   4.474  0.4884 -0.5268  0.3078
  287EMC     O2 3550   3.886   2.363   0.131 -0.3455 -0.0591 -0.1667
  287EMC     O3 3551   3.863   2.169   0.036 -0.3257  0.1148  1.0057
  287EMC     H1 3552   3.834   2.330   4.335  0.2454 -2.3869 -2.0387
  287EMC     H2 3553   3.978   2.264   4.281  0.1880  1.1429 -0.3504
  287EMC     H3 3554   3.954   2.432   4.273 -1.1658 -1.5367 -3.3972
  287EMC     C4 3555   3.724   2.500   0.238 -0.0370  0.0524 -0.2954
  287EMC     H4 3556   3.750   2.288   0.261 -3.7847 -1.6975 -0.9524
  287EMC     H5 3557   3.689   2.327   0.100 -0.2049 -1.8501  1.3107
  287EMC     H6 3558   3.777   2.519   0.330 -0.1506 -1.0506  0.0129
  287EMC     H7 3559   3.616   2.498   0.251 -0.0611  0.0900 -0.4755
  287EMC     H8 3560   3.754   2.583   0.174 -0.3924  0.0237 -0.5052
  288EMC     C1 3561   2.518   2.594   3.198  0.5599 -0.2438 -0.1344
  288EMC     C2 3562   2.624   2.736   2.792 -0.1178  0.3161  0.2038
  288EMC     C3 3563   2.527   2.611   2.962  0.6424  0.1250  0.7522
  288EMC     O1 3564   2.542   2.662   3.081 -0.0321  0.2802  0.1894
  288EMC     O2 3565   2.590   2.716   2.925 -0.3610  0.1137 -0.2491
  288EMC     O3 3566   2.561   2.491   2.937 -0.2011  0.1421  0.9648
  288EMC     H1 3567   2.411   2.582   3.215  0.5111  2.8788  2.6494
  288EMC     H2 3568   2.555   2.637   3.291 -2.4541 -1.0256  1.5614
  288EMC     H3 3569   2.559   2.493   3.186 -0.8229 -0.7102 -1.3638
  288EMC     C4 3570   2.733   2.840   2.788 -0.4709 -0.4218  0.0177
  288EMC     H4 3571   2.551   2.774   2.721  2.0583  2.2637 -1.1703
  288EMC     H5 3572   2.668   2.646   2.750 -0.2910 -0.0712  0.8429
  288EMC     H6 3573   2.742   2.895   2.695  0.3587  1.8225  1.3237
  288EMC     H7 3574   2.829   2.794   2.811  0.6023  1.9676  0.6353
  288EMC     H8 3575   2.716   2.924   2.856 -0.2074  0.8074 -1.3772
  289EMC     C1 3576   0.985   0.879   2.180  0.5564  0.5236  0.0789
  289EMC     C2 3577   0.963   1.191   1.938  0.6444  0.3202  0.2082
  289EMC     C3 3578   0.878   1.079   2.142 -0.5380 -0.0200 -0.0951
  289EMC     O1 3579   0.995   1.017   2.144 -0.0929  0.2667  0.1355
  289EMC     O2 3580   0.960   1.170   2.082  0.5091 -0.0877  0.4543
  289EMC     O3 3581   0.784   1.015   2.091 -0.6159 -0.9897 -0.2900
  289EMC     H1 3582   0.965   0.814   2.095 -0.7348  2.8214 -1.4942
  289EMC     H2 3583   0.896   0.879   2.244  0.0437  0.1437 -0.6250
  289EMC     H3 3584   1.068   0.838   2.237  0.0898 -0.3561  0.1407
  289EMC     C4 3585   1.007   1.328   1.900 -0.1429  0.2087  0.0864
  289EMC     H4 3586   0.861   1.173   1.902  0.3219  2.7778 -0.2421
  289EMC     H5 3587   1.032   1.117   1.897  1.2059  1.6834 -1.4040
  289EMC     H6 3588   1.001   1.331   1.791 -3.4238  1.2277  0.1993
  289EMC     H7 3589   1.112   1.352   1.922 -0.9166  2.3339  1.9129
  289EMC     H8 3590   0.938   1.408   1.926 -0.2172  0.4039 -0.6706
  290EMC     C1 3591   2.320   1.590   0.418 -0.3487  0.5239 -0.3446
  290EMC     C2 3592   2.219   1.279   0.270 -0.2440  0.3884 -0.5269
  290EMC     C3 3593   2.284   1.371   0.488  0.0835  0.0682 -0.1963
  290EMC     O1 3594   2.355   1.456   0.413 -0.6666 -0.3142 -0.3661
  290EMC     O2 3595   2.191   1.306   0.413  0.1906 -0.6556  0.2573
  290EMC     O3 3596   2.257   1.406   0.605  0.2294  0.6108 -0.4952
  290EMC     H1 3597   2.308   1.634   0.517  0.2757 -0.4269  0.1720
  290EMC     H2 3598   2.228   1.602   0.362  1.0422 -1.2506 -3.2736
  290EMC     H3 3599   2.390   1.655   0.365 -0.0494  0.9432  0.5434
  290EMC     C4 3600   2.083   1.229   0.219  0.1442  0.2693 -0.1508
  290EMC     H4 3601   2.302   1.208   0.267  0.5017  1.1942  0.2209
  290EMC     H5 3602   2.241   1.369   0.213  3.1759 -0.6978 -1.1880
  290EMC     H6 3603   2.082   1.255   0.113  0.2792  0.8942  0.0023
  290EMC     H7 3604   1.995   1.272   0.265  0.6326  0.1820  0.8899
  290EMC     H8 3605   2.075   1.120   0.225  0.9642  0.2001 -0.1744
  291EMC     C1 3606   2.889   1.774   1.806  0.2850 -0.2103  0.1369
  291EMC     C2 3607   3.013   1.368   1.805  0.0940  0.0059  0.0229
  291EMC     C3 3608   2.849   1.541   1.819  0.2423  0.1607  0.4488
  291EMC     O1 3609   2.931   1.652   1.844  0.3638  0.5215  0.1386
  291EMC     O2 3610   2.946   1.486   1.750  0.1550  0.3064 -0.5007
  291EMC     O3 3611   2.735   1.536   1.782  0.4220 -0.2187  0.3077
  291EMC     H1 3612   2.845   1.771   1.706 -1.2975 -0.1172  0.8054
  291EMC     H2 3613   2.966   1.851   1.801  0.3109 -0.2899 -1.0929
  291EMC     H3 3614   2.807   1.806   1.870 -0.1281 -0.0388 -0.4671
  291EMC     C4 3615   2.935   1.234   1.772  0.0746  0.1495 -0.0808
  291EMC     H4 3616   3.014   1.390   1.912 -0.8031  1.2258 -0.1962
  291EMC     H5 3617   3.116   1.361   1.771  0.4744  1.6596  0.7438
  291EMC     H6 3618   2.931   1.223   1.664 -1.1952 -2.2288  0.1354
  291EMC     H7 3619   2.828   1.240   1.792  0.2793 -0.3929  1.2774
  291EMC     H8 3620   2.987   1.145   1.809 -0.4548 -0.3317 -0.4692
  292EMC     C1 3621   2.842   0.505   1.049 -0.6345  1.3402 -0.2729
  292EMC     C2 3622   2.775   0.391   0.654  0.7439 -0.1890 -0.4671
  292EMC     C3 3623   2.754   0.359   0.892 -0.1861  0.3860  0.5131
  292EMC     O1 3624   2.743   0.472   0.955  0.0716 -0.1760  0.1723
  292EMC     O2 3625   2.808   0.425   0.789 -0.3337 -0.2357  0.1262
  292EMC     O3 3626   2.655   0.288   0.877  0.5224  0.4023  0.5074
  292EMC     H1 3627   2.846   0.435   1.132  1.3196 -0.1942 -1.5445
  292EMC     H2 3628   2.842   0.610   1.075 -1.5279  0.8934  1.7348
  292EMC     H3 3629   2.939   0.489   1.002  0.3514  0.5977  1.8864
  292EMC     C4 3630   2.846   0.477   0.557 -1.0366 -0.2292 -0.2395
  292EMC     H4 3631   2.667   0.403   0.648  0.6786 -0.6806 -0.3107
  292EMC     H5 3632   2.799   0.287   0.637  1.0256 -0.1732 -0.1732
  292EMC     H6 3633   2.827   0.582   0.581 -0.2361 -0.2116  0.3329
  292EMC     H7 3634   2.803   0.465   0.457 -1.4389  3.0429 -0.5948
  292EMC     H8 3635   2.954   0.472   0.564 -0.8245  0.6014 -2.2454
  293EMC     C1 3636   1.769   0.688   0.934  0.4645 -0.5655  0.3233
  293EMC     C2 3637   1.456   0.771   0.645 -0.8774 -0.6320 -0.6484
  293EMC     C3 3638   1.666   0.802   0.752  0.5300 -0.1414  0.4300
  293EMC     O1 3639   1.653   0.710   0.858 -0.2762 -0.3092  0.9659
  293EMC     O2 3640   1.536   0.774   0.761 -0.2170  0.1633  0.4843
  293EMC     O3 3641   1.742   0.783   0.654 -0.4253  0.7288 -0.4843
  293EMC     H1 3642   1.858   0.710   0.875 -1.0063  0.4454 -1.5798
  293EMC     H2 3643   1.773   0.580   0.952  0.9626 -0.6326 -0.1797
  293EMC     H3 3644   1.757   0.749   1.023 -4.2552 -1.3189  0.4592
  293EMC     C4 3645   1.353   0.666   0.675  0.7822 -0.6919  0.4355
  293EMC     H4 3646   1.512   0.735   0.559  0.1062 -1.3496  0.2717
  293EMC     H5 3647   1.411   0.867   0.621 -0.9015 -0.2711  0.7161
  293EMC     H6 3648   1.388   0.564   0.661  1.0107 -0.7403  1.2756
  293EMC     H7 3649   1.268   0.683   0.609  2.1652  1.4708 -0.9183
  293EMC     H8 3650   1.317   0.668   0.778 -1.6273  0.5285 -0.3483
  294EMC     C1 3651   0.917   1.264   1.008 -0.6595  0.0054 -0.2185
  294EMC     C2 3652   0.681   1.111   1.296 -0.5104 -0.2557  1.3503
  294EMC     C3 3653   0.907   1.156   1.220  0.1021  0.6657 -0.6151
  294EMC     O1 3654   0.928   1.146   1.089  0.2036 -0.3351 -0.2045
  294EMC     O2 3655   0.797   1.089   1.210  0.2495 -0.2584 -0.5001
  294EMC     O3 3656   0.916   1.254   1.300  0.0613  0.0269 -0.5008
  294EMC     H1 3657   0.936   1.352   1.070  0.9973 -0.5955  0.1995
  294EMC     H2 3658   0.830   1.260   0.944  1.3189 -0.6442 -3.0309
  294EMC     H3 3659   1.009   1.260   0.950  0.1085 -0.8131  0.9833
  294EMC     C4 3660   0.593   1.218   1.227  0.1999  0.1760  0.2338
  294EMC     H4 3661   0.719   1.145   1.392  1.6901 -0.7893  0.7328
  294EMC     H5 3662   0.623   1.022   1.319 -0.3443 -0.9916 -0.7981
  294EMC     H6 3663   0.620   1.321   1.249 -1.1570  0.6944 -0.3993
  294EMC     H7 3664   0.494   1.220   1.271  0.2474 -0.5237  0.3900
  294EMC     H8 3665   0.574   1.211   1.119  0.9309  0.5016  0.0784
  295EMC     C1 3666   2.950   0.813   2.288  0.3569 -0.3692  0.2865
  295EMC     C2 3667   2.741   1.019   2.054 -0.4977  0.1197 -0.0523
  295EMC     C3 3668   2.851   0.806   2.069 -0.0746  0.1996  0.6577
  295EMC     O1 3669   2.955   0.824   2.141 -0.4244  0.4902 -0.7320
  295EMC     O2 3670   2.861   0.943   2.036  0.4400  0.7630  0.0896
  295EMC     O3 3671   2.746   0.752   2.111 -0.3784 -0.4303 -0.2883
  295EMC     H1 3672   3.058   0.799   2.297  0.1498 -2.2597  0.2985
  295EMC     H2 3673   2.901   0.720   2.317  1.4805 -1.8568 -2.1877
  295EMC     H3 3674   2.905   0.902   2.331 -0.4496 -1.3835  1.6355
  295EMC     C4 3675   2.768   1.154   2.115 -0.7412  0.1788 -0.5020
  295EMC     H4 3676   2.664   0.976   2.118 -0.8198 -0.4620 -0.8202
  295EMC     H5 3677   2.693   1.047   1.960  0.1854  0.1913 -0.3843
  295EMC     H6 3678   2.840   1.215   2.060 -0.0821 -0.6154 -0.5378
  295EMC     H7 3679   2.810   1.132   2.213 -0.9763 -1.3811 -0.7354
  295EMC     H8 3680   2.673   1.204   2.134 -1.8272 -1.7190 -0.6337
  296EMC     C1 3681   3.512   3.382   3.714 -0.4968 -0.6280  0.6840
  296EMC     C2 3682   3.176   3.108   3.549 -0.0672 -0.4892  0.6457
  296EMC     C3 3683   3.324   3.299   3.597 -0.4510  0.6286  0.1705
  296EMC     O1 3684   3.447   3.283   3.638  0.3089 -0.1244  0.1745
  296EMC     O2 3685   3.293   3.183   3.536 -0.5461  0.9126  0.4660
  296EMC     O3 3686   3.237   3.358   3.662  0.0104  0.2814  0.2311
  296EMC     H1 3687   3.619   3.365   3.727 -0.0151  1.1038 -0.6523
  296EMC     H2 3688   3.482   3.385   3.819  1.7054  2.3714  1.3389
  296EMC     H3 3689   3.516   3.482   3.673  3.7121 -0.1938  1.6903
  296EMC     C4 3690   3.199   2.978   3.468  0.7379  0.0605 -0.1373
  296EMC     H4 3691   3.098   3.176   3.514  1.1986 -0.0527 -1.5103
  296EMC     H5 3692   3.159   3.084   3.654 -0.1366 -1.6132  0.3904
  296EMC     H6 3693   3.229   3.011   3.368 -4.0756  0.1156 -1.7929
  296EMC     H7 3694   3.109   2.918   3.459  0.1906  1.0624 -1.9687
  296EMC     H8 3695   3.282   2.940   3.528  1.3098  1.1543 -0.2073
  297EMC     C1 3696   2.486   0.698   4.195 -0.8013  0.5274 -0.1993
  297EMC     C2 3697   2.657   1.073   4.069  0.2572 -0.4818 -0.0774
  297EMC     C3 3698   2.651   0.846   4.102 -0.6824  0.1554  0.4129
  297EMC     O1 3699   2.604   0.775   4.205  0.3925 -0.0250  0.2395
  297EMC     O2 3700   2.670   0.960   4.157  0.0111  0.1300 -0.3251
  297EMC     O3 3701   2.619   0.825   3.984 -0.1015  0.2268 -0.7081
  297EMC     H1 3702   2.411   0.751   4.253  1.1046  1.6252  1.3727
  297EMC     H2 3703   2.513   0.601   4.238  0.9378 -0.0549 -2.3669
  297EMC     H3 3704   2.449   0.691   4.093 -1.7744  0.4447  0.1553
  297EMC     C4 3705   2.619   1.210   4.138 -0.4422 -0.3532  0.4155
  297EMC     H4 3706   2.575   1.050   4.000 -1.6838 -0.5094  2.1222
  297EMC     H5 3707   2.745   1.071   4.005  0.6242  1.4211  0.3100
  297EMC     H6 3708   2.695   1.245   4.208  1.6444  1.1904 -2.4154
  297EMC     H7 3709   2.531   1.201   4.202  1.4049 -2.6331  2.8774
  297EMC     H8 3710   2.608   1.289   4.064  0.5118 -1.0498 -0.5076
  298EMC     C1 3711   3.531   2.351   3.799 -0.4025  0.3916  0.1608
  298EMC     C2 3712   3.098   2.381   3.842  0.2151  0.2274  0.4063
  298EMC     C3 3713   3.321   2.404   3.908 -0.4578 -0.3103 -0.5647
  298EMC     O1 3714   3.400   2.313   3.834  0.3612 -0.0077  0.4298
  298EMC     O2 3715   3.225   2.323   3.858 -0.2011  0.3331 -0.5512
  298EMC     O3 3716   3.328   2.525   3.889 -0.0798 -0.1887 -0.3123
  298EMC     H1 3717   3.557   2.277   3.723  2.4351  0.1174  1.2750
  298EMC     H2 3718   3.594   2.356   3.888 -0.8949 -3.0029  0.8576
  298EMC     H3 3719   3.543   2.443   3.742  1.6141  0.2343  0.2542
  298EMC     C4 3720   2.996   2.285   3.765 -0.1480  0.4138 -0.0792
  298EMC     H4 3721   3.114   2.479   3.797  0.4573  0.1452  0.3117
  298EMC     H5 3722   3.058   2.408   3.940 -0.6205 -1.8195  0.6850
  298EMC     H6 3723   3.039   2.235   3.678  0.9072  3.8243 -1.7133
  298EMC     H7 3724   2.912   2.352   3.744  2.7078  4.6033  0.6065
  298EMC     H8 3725   2.978   2.198   3.828  0.5290  0.8841  0.7832
  299EMC     C1 3726   2.111   2.679   2.242  0.5701 -0.1014 -0.1543
  299EMC     C2 3727   2.318   2.314   2.295  0.6711 -0.1126 -0.0252
  299EMC     C3 3728   2.142   2.444   2.201  0.3544 -0.0873 -0.9212
  299EMC     O1 3729   2.172   2.570   2.171 -0.0133  0.1305 -0.0102
  299EMC     O2 3730   2.267   2.392   2.188 -0.5385  0.9816  1.0605
  299EMC     O3 3731   2.066   2.412   2.295  0.4281  0.4047 -0.2900
  299EMC     H1 3732   2.006   2.668   2.214  0.9720 -0.0114 -1.7613
  299EMC     H2 3733   2.153   2.775   2.213 -0.7600  0.9892  1.3153
  299EMC     H3 3734   2.146   2.664   2.344 -0.1103 -2.2842 -0.1975
  299EMC     C4 3735   2.457   2.265   2.262  0.0875  0.2665 -0.2904
  299EMC     H4 3736   2.251   2.230   2.316 -0.6145  1.1151  0.9921
  299EMC     H5 3737   2.335   2.390   2.371  1.2301  0.2144 -0.4772
  299EMC     H6 3738   2.443   2.180   2.196 -2.8122  0.4967 -0.0857
  299EMC     H7 3739   2.507   2.222   2.349 -0.4292  1.6069  0.6964
  299EMC     H8 3740   2.519   2.340   2.214 -0.8271  1.5627  0.4714
  300EMC     C1 3741   4.479   2.495   3.815  0.2415 -0.1995 -0.7751
  300EMC     C2 3742   4.443   2.924   3.859 -0.0877  0.1309  0.4407
  300EMC     C3 3743   0.055   2.715   3.886 -0.2682 -0.1306 -0.6542
  300EMC     O1 3744   4.457   2.623   3.871  0.2144 -0.4247  0.4098
  300EMC     O2 3745   4.452   2.797   3.917 -0.4235 -0.3599  0.2315
  300EMC     O3 3746   0.139   2.738   3.799 -0.2446  0.3523  0.0298
  300EMC     H1 3747   0.009   2.427   3.896 -2.2157 -2.1984 -1.5375
  300EMC     H2 3748   0.070   2.500   3.749  1.1262  2.5968  0.4371
  300EMC     H3 3749   4.388   2.469   3.762  0.1788 -0.1073 -0.7143
  300EMC     C4 3750   4.341   3.016   3.926 -0.0501  0.1864 -0.3900
  300EMC     H4 3751   4.421   2.922   3.752  0.6477 -1.8722  0.2851
  300EMC     H5 3752   0.049   2.959   3.879 -0.2217 -0.4935  2.4025
  300EMC     H6 3753   4.241   3.006   3.885 -1.4806 -1.3685  3.0870
  300EMC     H7 3754   4.362   3.119   3.896 -0.6513 -0.3397 -2.8558
  300EMC     H8 3755   4.345   3.025   4.034 -0.7252 -0.0051 -0.3470
  301EMC     C1 3756   1.776   2.637   0.819  0.1566  0.0231  0.1418
  301EMC     C2 3757   1.928   2.931   0.609  0.9494  0.0376 -0.2985
  301EMC     C3 3758   1.880   2.860   0.829  0.2585 -0.4991  0.7573
  301EMC     O1 3759   1.769   2.782   0.813  0.1624 -0.0310  0.0548
  301EMC     O2 3760   1.826   2.906   0.709  0.0865  0.4109 -0.1487
  301EMC     O3 3761   1.999   2.824   0.846  0.2628 -0.0122 -0.0011
  301EMC     H1 3762   1.736   2.589   0.730  1.1903 -4.5533  1.8595
  301EMC     H2 3763   1.730   2.585   0.903  1.0922 -0.9903  0.0588
  301EMC     H3 3764   1.882   2.611   0.829 -0.0158 -0.2326  1.4371
  301EMC     C4 3765   1.860   3.009   0.493  0.1859 -0.6059 -0.0030
  301EMC     H4 3766   1.965   2.833   0.578 -0.1731 -0.4077 -0.3048
  301EMC     H5 3767   2.001   2.998   0.654  0.4804 -0.2952  1.0033
  301EMC     H6 3768   1.820   3.107   0.523 -1.3074 -0.8643 -1.0053
  301EMC     H7 3769   1.777   2.952   0.451 -0.1930  1.1669 -1.8411
  301EMC     H8 3770   1.922   3.025   0.405 -1.9974  1.6290 -1.2817
  302EMC     C1 3771   4.059   1.197   1.817 -1.0324 -0.4288  0.6807
  302EMC     C2 3772   3.944   1.291   1.413  0.4202 -0.1786 -0.6490
  302EMC     C3 3773   3.936   1.303   1.650 -0.0904  0.0770 -0.0535
  302EMC     O1 3774   3.967   1.191   1.709  0.5757 -0.2710  0.3273
  302EMC     O2 3775   3.914   1.229   1.537 -0.9028 -0.2445  0.4890
  302EMC     O3 3776   4.010   1.400   1.661 -0.2510 -0.2122 -0.0794
  302EMC     H1 3777   4.030   1.121   1.890  0.0022  0.2250  1.7888
  302EMC     H2 3778   4.064   1.290   1.873  0.2579 -0.2842  0.3405
  302EMC     H3 3779   4.159   1.166   1.789 -1.1803  1.6363 -2.8027
  302EMC     C4 3780   3.906   1.198   1.298 -0.1566  0.1486  0.0946
  302EMC     H4 3781   4.049   1.321   1.414  0.0292  1.2873 -1.2359
  302EMC     H5 3782   3.896   1.386   1.392  3.3236  1.1817 -1.6747
  302EMC     H6 3783   3.966   1.108   1.287 -0.4978 -0.3795  2.1960
  302EMC     H7 3784   3.905   1.258   1.207  1.0770 -1.3321 -0.9434
  302EMC     H8 3785   3.808   1.151   1.306  0.9058 -3.1182 -3.2517
  303EMC     C1 3786   2.664   2.167   3.946 -0.4467 -0.6449  0.1271
  303EMC     C2 3787   3.066   2.143   4.139  0.4727 -0.2892  0.5769
  303EMC     C3 3788   2.838   2.121   4.104  0.3740 -0.3598  0.0185
  303EMC     O1 3789   2.766   2.208   4.039 -0.1711 -0.4767 -0.2040
  303EMC     O2 3790   2.948   2.192   4.096  0.3725  0.0105 -0.7758
  303EMC     O3 3791   2.840   2.001   4.076  0.2654  0.2399 -0.0628
  303EMC     H1 3792   2.606   2.252   3.911  0.6966  0.2055  0.2113
  303EMC     H2 3793   2.601   2.087   3.984  0.3044 -0.2765  2.3012
  303EMC     H3 3794   2.719   2.146   3.854  1.3899  1.2461  0.7030
  303EMC     C4 3795   3.124   2.225   4.254  0.3996  0.3438  0.5294
  303EMC     H4 3796   3.128   2.171   4.054 -1.9848  0.1707 -1.1929
  303EMC     H5 3797   3.075   2.036   4.159  1.1263 -0.6764 -1.4712
  303EMC     H6 3798   3.044   2.223   4.328 -1.8190 -0.3292 -1.7535
  303EMC     H7 3799   3.151   2.327   4.226  0.6577 -0.0586 -0.7564
  303EMC     H8 3800   3.210   2.181   4.305 -1.0582  0.1887  3.0423
  304EMC     C1 3801   3.839   0.030   2.933 -0.0370 -0.2605  0.9216
  304EMC     C2 3802   4.048   4.193   2.818 -0.3218 -0.2330  0.1884
  304EMC     C3 3803   3.957   4.403   2.768 -0.5355  0.1154 -0.2128
  304EMC     O1 3804   3.840   4.421   2.836 -0.2508 -0.6331  0.2847
  304EMC     O2 3805   3.938   4.277   2.796  0.1644 -0.7975 -0.2466
  304EMC     O3 3806   4.062   4.460   2.794  0.0659 -0.4358  0.5190
  304EMC     H1 3807   3.922   0.027   3.003  0.3612 -0.8566  0.4368
  304EMC     H2 3808   3.746   0.030   2.989  0.2241  2.3464  1.5115
  304EMC     H3 3809   3.853   0.127   2.883  1.5910  0.2095  2.1883
  304EMC     C4 3810   3.988   4.061   2.848  0.3320 -0.4328  0.3057
  304EMC     H4 3811   4.102   4.229   2.906 -0.3349  0.2225  0.0165
  304EMC     H5 3812   4.112   4.190   2.729  1.7790 -2.4344  1.6484
  304EMC     H6 3813   4.045   3.984   2.899 -1.8049 -0.6915  2.4824
  304EMC     H7 3814   3.983   4.006   2.754  0.0120 -2.1798  1.2995
  304EMC     H8 3815   3.888   4.072   2.890  0.2780 -0.0402  0.0765
  305EMC     C1 3816   0.891   3.114   0.574  0.1681  0.5653 -0.6501
  305EMC     C2 3817   0.638   2.912   0.366  0.1303 -0.4479  0.2981
  305EMC     C3 3818   0.734   3.122   0.402  0.4060 -0.8306 -0.5472
  305EMC     O1 3819   0.760   3.111   0.535 -0.2655  0.8305 -0.0968
  305EMC     O2 3820   0.624   3.046   0.409  0.3973  0.2511 -0.5132
  305EMC     O3 3821   0.816   3.116   0.308  0.6975 -0.2304 -0.1570
  305EMC     H1 3822   0.956   3.031   0.546  0.7895 -0.6955  3.7946
  305EMC     H2 3823   0.879   3.102   0.681 -2.6871  2.4675 -0.6271
  305EMC     H3 3824   0.943   3.208   0.556  0.1523  0.3829 -1.7507
  305EMC     C4 3825   0.575   2.809   0.463  0.3416  0.4903  0.0305
  305EMC     H4 3826   0.742   2.885   0.345  0.6647  0.3198  1.7766
  305EMC     H5 3827   0.597   2.906   0.265  1.0929 -0.1899 -0.1198
  305EMC     H6 3828   0.466   2.816   0.471  0.1056  0.5953 -2.4991
  305EMC     H7 3829   0.613   2.821   0.565 -1.1064  1.4919  0.4778
  305EMC     H8 3830   0.606   2.707   0.440 -2.4090 -0.8604  1.7162
  306EMC     C1 3831   0.939   1.299   4.353  0.4018  0.1893 -0.1661
  306EMC     C2 3832   0.740   1.215   4.060 -0.0533 -0.0831 -0.0757
  306EMC     C3 3833   0.933   1.354   4.121  0.1354 -0.0333 -0.6371
  306EMC     O1 3834   0.887   1.363   4.243  0.6801 -0.2396 -0.6765
  306EMC     O2 3835   0.797   1.338   4.114 -0.1642 -0.0794  0.0558
  306EMC     O3 3836   1.012   1.266   4.090 -0.1835  0.3961 -0.6460
  306EMC     H1 3837   1.047   1.311   4.356  0.5217 -0.6408 -0.7564
  306EMC     H2 3838   0.917   1.192   4.346 -0.0147  0.3629 -1.8580
  306EMC     H3 3839   0.902   1.338   4.448  1.2827 -2.3665  1.3436
  306EMC     C4 3840   0.581   1.220   4.052 -0.0363  0.5146 -0.0843
  306EMC     H4 3841   0.760   1.143   4.139  0.3853 -1.3487 -1.3189
  306EMC     H5 3842   0.780   1.180   3.965 -1.1547  1.0029 -0.9851
  306EMC     H6 3843   0.532   1.128   4.020  0.3622 -0.2134  1.3332
  306EMC     H7 3844   0.561   1.294   3.974 -0.5545  0.7117  0.2329
  306EMC     H8 3845   0.534   1.255   4.143  0.0981  1.0637 -0.2212
  307EMC     C1 3846   2.447   0.445   3.589  0.4921  0.6646 -0.3052
  307EMC     C2 3847   2.276   0.641   3.851  0.0169 -0.7495 -0.0663
  307EMC     C3 3848   2.436   0.476   3.829  1.2679  0.3358  0.0034
  307EMC     O1 3849   2.401   0.407   3.720 -0.2178 -0.7121 -0.0910
  307EMC     O2 3850   2.303   0.503   3.844 -0.2983 -0.2626  0.4507
  307EMC     O3 3851   2.527   0.557   3.835  0.5738  0.1179  0.1660
  307EMC     H1 3852   2.550   0.479   3.591  1.3762 -1.8237  0.2291
  307EMC     H2 3853   2.378   0.526   3.565 -2.5299 -0.1064  4.4077
  307EMC     H3 3854   2.445   0.369   3.511  2.8877  0.3419 -0.1224
  307EMC     C4 3855   2.132   0.642   3.906 -0.6303  0.5289  0.1688
  307EMC     H4 3856   2.285   0.669   3.746 -1.8449 -1.9495 -0.5866
  307EMC     H5 3857   2.343   0.684   3.925 -1.1043 -1.9530  1.7413
  307EMC     H6 3858   2.066   0.591   3.836 -1.1742  0.8913  0.4201
  307EMC     H7 3859   2.096   0.738   3.941 -0.9934  0.4253  0.0781
  307EMC     H8 3860   2.139   0.579   3.995  0.4948 -1.1252 -1.0131
  308EMC     C1 3861   3.352   4.381   2.291 -0.2028 -0.3413  0.3946
  308EMC     C2 3862   3.759   4.465   2.089 -0.1962 -0.2622  0.3446
  308EMC     C3 3863   3.570   4.403   2.214 -0.7035  0.6044  0.6183
  308EMC     O1 3864   3.483   4.442   2.305  0.8014  1.0115  0.3616
  308EMC     O2 3865   3.671   4.489   2.195 -0.1804 -0.0401 -0.0889
  308EMC     O3 3866   3.566   4.285   2.172  0.4113 -0.7602  0.7658
  308EMC     H1 3867   3.314   4.381   2.188  0.4535 -1.7105  0.1286
  308EMC     H2 3868   3.284   4.419   2.368  0.2148  1.2917  0.0021
  308EMC     H3 3869   3.359   4.274   2.306  0.5784 -0.3592 -0.0508
  308EMC     C4 3870   3.868   0.073   2.090 -0.2392  0.5298 -0.5016
  308EMC     H4 3871   3.698   4.484   2.001  0.8855  3.0903  0.1892
  308EMC     H5 3872   3.803   4.366   2.098  0.9634  0.2380  0.2941
  308EMC     H6 3873   3.924   0.072   1.997 -1.1532  1.1778 -1.0687
  308EMC     H7 3874   3.939   0.060   2.172 -0.0486  1.1492 -0.5678
  308EMC     H8 3875   3.831   0.175   2.097  0.3861  0.6850  0.8949
  309EMC     C1 3876   2.113   2.696   1.523 -0.0952  0.9075  0.4209
  309EMC     C2 3877   2.474   2.703   1.368  0.3623 -0.0633 -0.0077
  309EMC     C3 3878   2.326   2.803   1.529  0.7424 -0.3723 -0.1554
  309EMC     O1 3879   2.243   2.713   1.575 -0.0793 -0.3966  0.1178
  309EMC     O2 3880   2.405   2.704   1.495 -0.2803  0.7541 -0.0670
  309EMC     O3 3881   2.288   2.883   1.448 -0.4169  0.2571  0.1313
  309EMC     H1 3882   2.125   2.642   1.430  0.7704 -0.5233  1.3228
  309EMC     H2 3883   2.068   2.792   1.499  0.8953  0.9069 -1.6578
  309EMC     H3 3884   2.046   2.633   1.582  0.1058 -1.0571 -1.3402
  309EMC     C4 3885   2.524   2.568   1.349 -0.1964  0.2500  0.0823
  309EMC     H4 3886   2.558   2.773   1.370  0.5174 -0.2549  0.4226
  309EMC     H5 3887   2.411   2.724   1.282  0.2999  0.1367  0.0850
  309EMC     H6 3888   2.448   2.494   1.325  0.1880 -0.5507  1.2461
  309EMC     H7 3889   2.599   2.525   1.416 -0.4974  0.2776  0.4391
  309EMC     H8 3890   2.574   2.573   1.253  0.3100 -2.4795  0.1062
  310EMC     C1 3891   3.150   1.297   1.468 -0.4296 -0.2956  0.0518
  310EMC     C2 3892   2.846   1.231   1.244 -0.4186 -0.1438  0.0019
  310EMC     C3 3893   2.963   1.387   1.383 -0.2219  0.2832  0.1410
  310EMC     O1 3894   3.090   1.386   1.366 -0.3306  0.6313 -0.4096
  310EMC     O2 3895   2.942   1.333   1.265 -0.5827 -0.3059  0.1961
  310EMC     O3 3896   2.896   1.357   1.477  0.5061  0.4950 -0.1105
  310EMC     H1 3897   3.229   1.230   1.432  1.0928  1.3789  0.1730
  310EMC     H2 3898   3.081   1.218   1.500  0.5718 -1.6095 -0.8758
  310EMC     H3 3899   3.181   1.344   1.561 -1.7994 -1.1839  0.9964
  310EMC     C4 3900   2.894   1.158   1.120 -0.1154 -0.3452 -0.0018
  310EMC     H4 3901   2.744   1.269   1.239 -0.1686  0.9088  2.0176
  310EMC     H5 3902   2.846   1.154   1.321  0.4753  0.9646  1.1546
  310EMC     H6 3903   2.940   1.223   1.046  2.2004 -2.8411 -0.9480
  310EMC     H7 3904   2.823   1.089   1.074  1.8008 -0.8810 -2.3863
  310EMC     H8 3905   2.984   1.100   1.143  0.1881 -0.3658 -1.1761
  311EMC     C1 3906   0.434   0.547   4.261 -0.1246 -0.1592  0.0162
  311EMC     C2 3907   0.595   0.769   3.912  0.0702  0.2078 -0.0446
  311EMC     C3 3908   0.580   0.605   4.084 -0.0282 -0.4381 -0.5464
  311EMC     O1 3909   0.528   0.632   4.201  0.4646 -0.0268 -0.4184
  311EMC     O2 3910   0.598   0.729   4.044  0.3271 -0.0544 -0.2930
  311EMC     O3 3911   0.541   0.517   4.009  0.4094  0.0815 -0.2880
  311EMC     H1 3912   0.429   0.576   4.366 -0.8371 -1.8206  0.4818
  311EMC     H2 3913   0.464   0.443   4.253 -0.7564 -0.2994 -0.5985
  311EMC     H3 3914   0.335   0.552   4.216 -1.1987  1.8214  2.3547
  311EMC     C4 3915   0.734   0.813   3.877 -0.5714 -0.2686  0.0865
  311EMC     H4 3916   0.530   0.856   3.912 -3.9504 -2.5181 -0.8292
  311EMC     H5 3917   0.554   0.691   3.847 -0.4825  1.2959 -1.0339
  311EMC     H6 3918   0.820   0.761   3.920  0.8395 -0.5095 -2.8050
  311EMC     H7 3919   0.732   0.919   3.904  1.2066  0.1049 -1.0839
  311EMC     H8 3920   0.751   0.801   3.770 -0.6902 -1.1914  0.1614
  312EMC     C1 3921   4.483   2.773   0.988  0.1390  0.2983 -0.3172
  312EMC     C2 3922   0.344   2.955   1.067  0.3411  0.2766  0.3820
  312EMC     C3 3923   0.205   2.770   1.081 -0.0143 -0.0028 -0.1287
  312EMC     O1 3924   0.116   2.833   1.007  0.0055 -0.1025  0.2379
  312EMC     O2 3925   0.262   2.868   1.142 -0.1624 -0.2415 -0.0858
  312EMC     O3 3926   0.183   2.662   1.136  0.0524 -0.1123  0.3304
  312EMC     H1 3927   4.446   2.808   0.892  0.6541 -1.0127 -1.0267
  312EMC     H2 3928   4.406   2.800   1.060  0.3977 -2.2993  1.0816
  312EMC     H3 3929   0.010   2.666   0.995 -1.1350 -0.0057 -0.5984
  312EMC     C4 3930   0.426   3.033   1.170  0.8699 -0.0746  0.3453
  312EMC     H4 3931   0.285   3.019   1.002 -2.0087 -0.7477  1.3590
  312EMC     H5 3932   0.417   2.906   1.003 -0.2049  2.2931 -1.9398
  312EMC     H6 3933   0.511   2.973   1.203  3.7934  1.8408 -2.9615
  312EMC     H7 3934   0.377   3.051   1.266  0.0567  0.2389 -0.1230
  312EMC     H8 3935   0.473   3.122   1.128 -0.6358  1.3087  1.4612
  313EMC     C1 3936   3.067   3.916   3.585 -0.6316  0.2793  0.0903
  313EMC     C2 3937   2.704   3.705   3.775  0.9069  0.1244 -0.4020
  313EMC     C3 3938   2.919   3.808   3.753  0.2717  0.4123  0.4108
  313EMC     O1 3939   2.958   3.922   3.686  0.1259 -0.4175  0.6816
  313EMC     O2 3940   2.784   3.820   3.778 -0.2293 -0.2529 -0.0961
  313EMC     O3 3941   2.963   3.700   3.708  0.0005  0.5080 -0.2346
  313EMC     H1 3942   3.140   3.862   3.645 -1.2311 -0.4864  0.1459
  313EMC     H2 3943   3.096   4.016   3.552  0.3694 -0.4663 -1.3938
  313EMC     H3 3944   3.031   3.857   3.500  1.0972  0.8389 -1.0851
  313EMC     C4 3945   2.547   3.727   3.776 -0.1980  0.8139 -0.3401
  313EMC     H4 3946   2.727   3.639   3.859 -1.9592 -0.3300  0.1304
  313EMC     H5 3947   2.738   3.655   3.685  3.6489  1.3190 -0.1136
  313EMC     H6 3948   2.520   3.804   3.704  1.9387  0.1439 -1.9397
  313EMC     H7 3949   2.512   3.751   3.877  0.3049 -0.8107  0.2580
  313EMC     H8 3950   2.495   3.634   3.755  0.5073  0.8081 -2.2858
  314EMC     C1 3951   0.240   4.170   3.746 -0.7025 -0.0283 -0.0993
  314EMC     C2 3952   4.454   4.265   3.959 -0.4547  0.0456 -0.3626
  314EMC     C3 3953   0.134   4.097   3.952  0.5602  0.1545  0.2102
  314EMC     O1 3954   0.227   4.173   3.893 -0.1253 -0.2132  0.8035
  314EMC     O2 3955   0.086   4.215   4.002 -0.1012 -0.8390 -0.2926
  314EMC     O3 3956   0.059   4.023   3.880  0.0048  0.0303  0.3606
  314EMC     H1 3957   0.279   4.073   3.716 -1.1903 -0.7961  1.6401
  314EMC     H2 3958   0.309   4.244   3.705 -1.1722  0.2471 -0.4083
  314EMC     H3 3959   0.142   4.183   3.701 -1.2582 -2.7531  0.1661
  314EMC     C4 3960   4.331   4.200   4.031 -0.2058 -0.0371  0.2012
  314EMC     H4 3961   4.447   4.238   3.854 -0.3649 -0.1130 -0.3282
  314EMC     H5 3962   4.443   4.373   3.952  0.4305  0.0986 -1.1229
  314EMC     H6 3963   4.307   4.098   4.002 -1.2129  0.5029 -0.9418
  314EMC     H7 3964   4.245   4.265   4.021  1.3055  1.8123 -2.1932
  314EMC     H8 3965   4.353   4.199   4.137 -1.5819 -0.6656  0.4960
  315EMC     C1 3966   0.408   1.585   0.225  0.1437 -0.7576  0.3800
  315EMC     C2 3967   0.475   1.387   0.569  0.2286  0.2307  0.0141
  315EMC     C3 3968   0.397   1.587   0.468  0.1376 -0.4904  0.3980
  315EMC     O1 3969   0.349   1.547   0.345 -0.0711 -0.1214 -0.0285
  315EMC     O2 3970   0.379   1.451   0.488  0.0614  0.4200  0.3059
  315EMC     O3 3971   0.508   1.640   0.472  0.2658  0.0079  0.0010
  315EMC     H1 3972   0.323   1.601   0.159 -0.9289  0.4001  1.9750
  315EMC     H2 3973   0.470   1.504   0.186 -0.3156 -1.0871  0.3312
  315EMC     H3 3974   0.465   1.678   0.218 -0.1187 -0.6425 -0.3851
  315EMC     C4 3975   0.454   1.232   0.561  0.0703 -0.2909  0.2614
  315EMC     H4 3976   0.463   1.422   0.672  1.1747 -0.3704  0.3453
  315EMC     H5 3977   0.575   1.418   0.539  0.1688  2.5589  1.9540
  315EMC     H6 3978   0.433   1.198   0.459 -0.5796  0.9975 -0.0650
  315EMC     H7 3979   0.370   1.207   0.626 -0.0847  2.0775  1.0739
  315EMC     H8 3980   0.536   1.170   0.597  1.9543  1.9991  0.1375
  316EMC     C1 3981   3.791   4.012   0.397 -0.6807 -0.5127  0.1333
  316EMC     C2 3982   3.493   4.100   0.252 -0.2249 -0.1567  0.8214
  316EMC     C3 3983   3.631   3.903   0.271 -0.2705  0.0083  0.8109
  316EMC     O1 3984   3.735   3.975   0.271 -0.0595 -0.2389  0.1559
  316EMC     O2 3985   3.588   4.010   0.199  0.4666 -0.2873 -0.8020
  316EMC     O3 3986   3.571   3.865   0.367  1.0179  0.0812 -0.4060
  316EMC     H1 3987   3.839   3.934   0.455 -0.6409  0.1702  1.0482
  316EMC     H2 3988   3.714   4.058   0.459 -0.8002  0.0693 -0.4426
  316EMC     H3 3989   3.853   4.100   0.380  0.0859 -1.1513 -0.4732
  316EMC     C4 3990   3.498   4.216   0.149  0.0216 -0.6075  0.0274
  316EMC     H4 3991   3.508   4.149   0.348 -0.4174 -0.6132  1.0873
  316EMC     H5 3992   3.390   4.063   0.244 -1.2220  2.6677 -0.8439
  316EMC     H6 3993   3.425   4.293   0.177  1.4635  0.9766 -0.4215
  316EMC     H7 3994   3.477   4.192   0.045 -1.0708  1.0252 -0.1698
  316EMC     H8 3995   3.597   4.259   0.161  0.5443 -0.7344 -3.1576
  317EMC     C1 3996   2.295   1.925   0.615 -0.4066  0.1848  0.8632
  317EMC     C2 3997   2.699   1.932   0.664  0.5802 -0.9097  0.0020
  317EMC     C3 3998   2.512   1.885   0.534  0.0858  0.5292  0.3892
  317EMC     O1 3999   2.398   1.944   0.519  0.3942  0.5997 -0.3019
  317EMC     O2 4000   2.559   1.938   0.644  0.1738  0.0958  0.6098
  317EMC     O3 4001   2.578   1.824   0.454 -0.6053  0.7672 -0.3037
  317EMC     H1 4002   2.235   1.836   0.603 -1.3834  1.1322 -1.9160
  317EMC     H2 4003   2.235   2.016   0.612 -1.2135 -0.3681 -0.0364
  317EMC     H3 4004   2.341   1.920   0.714  0.0425  0.1912  0.6566
  317EMC     C4 4005   2.761   2.039   0.761  0.5545  0.1873 -0.9438
  317EMC     H4 4006   2.741   1.936   0.563 -3.6619 -0.7217 -1.9848
  317EMC     H5 4007   2.710   1.826   0.689  2.6876 -0.6832  0.2233
  317EMC     H6 4008   2.726   2.032   0.864  0.0878 -1.1000 -1.1785
  317EMC     H7 4009   2.727   2.137   0.728  1.6777  1.2106  0.7855
  317EMC     H8 4010   2.870   2.035   0.766  0.5181  0.1311 -0.0324
  318EMC     C1 4011   3.623   3.032   3.104 -0.0562  0.0301 -0.3178
  318EMC     C2 4012   3.665   3.328   3.358  0.1060 -0.0476 -0.0499
  318EMC     C3 4013   3.526   3.137   3.297  0.3797  0.5044 -0.2710
  318EMC     O1 4014   3.623   3.054   3.246 -0.4262  0.5628 -0.1251
  318EMC     O2 4015   3.645   3.191   3.352  0.2036  0.9435 -0.0743
  318EMC     O3 4016   3.443   3.194   3.226 -0.4572 -0.6231 -0.1603
  318EMC     H1 4017   3.522   3.033   3.062  0.4052  1.1783 -1.4777
  318EMC     H2 4018   3.663   2.933   3.080  1.3225  0.7577 -1.1519
  318EMC     H3 4019   3.675   3.117   3.059  2.2132 -0.6112  0.9017
  318EMC     C4 4020   3.818   3.341   3.392 -1.1886 -0.4012 -0.5915
  318EMC     H4 4021   3.599   3.373   3.433  0.5616 -0.6145  0.7124
  318EMC     H5 4022   3.631   3.376   3.266 -2.6720  2.3310  2.0140
  318EMC     H6 4023   3.859   3.265   3.459  0.2596 -0.0995 -1.0921
  318EMC     H7 4024   3.849   3.442   3.419 -0.6430 -0.8550  0.5385
  318EMC     H8 4025   3.882   3.316   3.307  0.4156  1.2976  0.0565
  319EMC     C1 4026   3.081   0.296   2.833 -0.3367  0.0256  0.5095
  319EMC     C2 4027   3.230   0.199   2.513 -0.8518 -0.1614  0.4317
  319EMC     C3 4028   3.025   0.201   2.621 -0.0963 -0.3842 -0.8937
  319EMC     O1 4029   3.043   0.315   2.702  0.5388 -0.1710  0.2259
  319EMC     O2 4030   3.122   0.267   2.574 -0.3531  0.0763  0.8911
  319EMC     O3 4031   3.039   0.088   2.665 -0.3481  0.5670  0.6870
  319EMC     H1 4032   3.174   0.246   2.863  1.1546  2.4372  0.2057
  319EMC     H2 4033   3.007   0.238   2.888 -0.2827  0.2549  0.8260
  319EMC     H3 4034   3.086   0.389   2.890  2.2427 -1.3551  2.8000
  319EMC     C4 4035   3.325   0.283   2.419 -0.3050  0.2510  0.1770
  319EMC     H4 4036   3.180   0.125   2.451  1.3287 -2.7455  1.5380
  319EMC     H5 4037   3.299   0.148   2.581  1.0962  0.8837 -0.6507
  319EMC     H6 4038   3.266   0.291   2.329 -0.0435  1.2458  0.0861
  319EMC     H7 4039   3.420   0.244   2.383  1.3176  3.0606  1.1531
  319EMC     H8 4040   3.358   0.377   2.463  0.0495  0.1317  0.1721
  320EMC     C1 4041   3.033   3.167   4.400  0.4329  0.4146  0.2065
  320EMC     C2 4042   2.966   2.722   0.064 -0.3035  0.2474  0.6950
  320EMC     C3 4043   3.017   2.950   4.491  0.1828  0.0563 -1.3119
  320EMC     O1 4044   3.015   3.028   4.383  0.0062 -0.5080 -0.2714
  320EMC     O2 4045   3.001   2.819   4.462  0.2669  0.5618 -0.2610
  320EMC     O3 4046   2.987   2.995   0.109 -0.4784 -0.2068  1.2974
  320EMC     H1 4047   2.953   3.225   4.447  1.8865  0.6477  2.5368
  320EMC     H2 4048   3.064   3.214   4.307  3.6033  0.5529  1.2210
  320EMC     H3 4049   3.121   3.196   4.456  0.8952 -1.2312  0.3821
  320EMC     C4 4050   2.897   2.614   4.472  0.2706  0.6605  0.3998
  320EMC     H4 4051   2.899   2.773   0.133  0.0114  1.3600  0.2016
  320EMC     H5 4052   3.059   2.698   0.115  0.8278  1.3578 -0.7396
  320EMC     H6 4053   2.794   2.644   4.447  0.6554  1.3758 -0.4131
  320EMC     H7 4054   2.893   2.521   0.031  1.2184 -0.1475 -0.8468
  320EMC     H8 4055   2.956   2.593   4.383  1.2621 -1.0942  1.4377
  321EMC     C1 4056   0.265   2.114   3.988  0.4571 -0.6655  0.2908
  321EMC     C2 4057   4.415   1.934   3.851  0.0018  0.3338  0.5174
  321EMC     C3 4058   0.083   2.104   3.828  0.5555  0.0300  0.0823
  321EMC     O1 4059   0.164   2.039   3.918  0.1893  0.6000 -0.2824
  321EMC     O2 4060   4.451   2.058   3.792 -0.1803  0.0421  0.7733
  321EMC     O3 4061   0.113   2.211   3.782  0.1676 -0.2883 -0.5993
  321EMC     H1 4062   0.223   2.211   4.016 -1.6509 -1.1415 -0.9545
  321EMC     H2 4063   0.350   2.133   3.923  1.2177  0.5290  1.5712
  321EMC     H3 4064   0.300   2.058   4.074 -1.6735 -1.3993  0.7518
  321EMC     C4 4065   4.266   1.912   3.824 -0.1853  0.1040 -0.1308
  321EMC     H4 4066   4.439   1.934   3.958 -0.9155 -0.8625  0.7434
  321EMC     H5 4067   4.470   1.848   3.813 -0.5657 -0.2599  1.0131
  321EMC     H6 4068   4.236   1.822   3.879 -1.6647  0.3686 -0.4736
  321EMC     H7 4069   4.252   1.909   3.716  2.7020  1.4931 -0.6396
  321EMC     H8 4070   4.198   1.988   3.861 -0.4638 -0.5642  0.7820
  322EMC     C1 4071   2.279   1.495   2.847  0.2454 -0.8625 -0.0475
  322EMC     C2 4072   2.142   1.051   2.869  0.2097 -0.1580  0.2043
  322EMC     C3 4073   2.188   1.283   2.856 -0.3506  0.0280 -0.5820
  322EMC     O1 4074   2.256   1.369   2.920  0.6322  0.6408 -0.2568
  322EMC     O2 4075   2.227   1.160   2.889  0.9050  0.1520 -0.2980
  322EMC     O3 4076   2.133   1.296   2.746  0.7007 -0.3244 -0.2853
  322EMC     H1 4077   2.376   1.539   2.873 -1.6635  2.7283  1.7005
  322EMC     H2 4078   2.196   1.565   2.845  1.3550  0.4638 -0.9609
  322EMC     H3 4079   2.299   1.477   2.742  1.1223 -0.8531  0.1050
  322EMC     C4 4080   2.216   0.915   2.891 -0.3635 -0.2147  1.4351
  322EMC     H4 4081   2.105   1.053   2.767 -2.5979 -1.2738  1.0957
  322EMC     H5 4082   2.052   1.054   2.931 -0.2634 -1.2286 -0.3932
  322EMC     H6 4083   2.163   0.829   2.853  0.8098 -0.6213  0.6740
  322EMC     H7 4084   2.239   0.895   2.996 -0.0841 -1.1931  1.1937
  322EMC     H8 4085   2.298   0.924   2.819 -1.4133  0.1863  0.2627
  323EMC     C1 4086   1.328   2.371   3.083  0.9479  0.1452 -0.2317
  323EMC     C2 4087   1.072   2.221   2.719 -0.3946 -0.5114  0.3510
  323EMC     C3 4088   1.186   2.332   2.893  0.5083 -0.3549  0.4712
  323EMC     O1 4089   1.296   2.302   2.964  0.4047 -0.0027  0.2636
  323EMC     O2 4090   1.194   2.245   2.791 -0.2399 -0.1177 -0.4520
  323EMC     O3 4091   1.091   2.393   2.935  0.3126  0.5420 -0.2511
  323EMC     H1 4092   1.300   2.476   3.074  0.5706  0.0869  0.1968
  323EMC     H2 4093   1.436   2.361   3.088  0.8179 -1.4169 -0.1914
  323EMC     H3 4094   1.274   2.333   3.170 -0.8813 -1.2637 -1.8858
  323EMC     C4 4095   1.097   2.138   2.597 -0.2695  0.0446  0.4049
  323EMC     H4 4096   1.040   2.318   2.682  1.5098  0.2140  0.4800
  323EMC     H5 4097   1.000   2.167   2.780 -2.1818  1.3801  0.0396
  323EMC     H6 4098   1.004   2.122   2.542  0.5966 -1.2542 -0.7286
  323EMC     H7 4099   1.119   2.036   2.628 -0.1624  0.3060  1.2164
  323EMC     H8 4100   1.153   2.195   2.523 -0.6763 -0.8349 -0.5974
  324EMC     C1 4101   2.498   2.933   3.320  0.2883  0.1707 -0.4169
  324EMC     C2 4102   2.692   2.966   3.732 -0.2930  1.0364  0.6231
  324EMC     C3 4103   2.528   2.908   3.552 -0.4552 -0.1201 -0.4899
  324EMC     O1 4104   2.569   2.875   3.430 -0.3199 -0.7148 -0.4962
  324EMC     O2 4105   2.642   2.884   3.627  0.9470  0.1980 -0.2565
  324EMC     O3 4106   2.464   3.007   3.568  0.2493  0.0513  0.6823
  324EMC     H1 4107   2.528   3.037   3.307  0.2662  0.5151  1.7959
  324EMC     H2 4108   2.392   2.938   3.346  0.3835  0.8144 -0.1339
  324EMC     H3 4109   2.491   2.879   3.226  0.6274 -0.3021 -0.1751
  324EMC     C4 4110   2.839   2.947   3.764 -0.2274  0.0039  0.4481
  324EMC     H4 4111   2.634   2.941   3.822 -0.8011 -3.7928 -0.7757
  324EMC     H5 4112   2.684   3.074   3.720 -1.3889  1.0613  1.4404
  324EMC     H6 4113   2.855   2.844   3.796  1.7772 -0.2667 -1.2333
  324EMC     H7 4114   2.866   3.014   3.846 -1.7976 -0.4101  1.3498
  324EMC     H8 4115   2.899   2.976   3.678 -1.4510 -1.3544 -0.9102
  325EMC     C1 4116   3.852   2.691   4.086 -0.1194  0.0546  0.1145
  325EMC     C2 4117   3.552   2.522   4.202 -0.0606  0.6309 -0.1282
  325EMC     C3 4118   3.712   2.675   4.277 -0.4120  0.1213  0.7201
  325EMC     O1 4119   3.799   2.614   4.203  0.6412 -0.6935 -0.5551
  325EMC     O2 4120   3.665   2.553   4.289  0.6808 -0.6447  0.4596
  325EMC     O3 4121   3.655   2.777   4.240  0.1244 -0.1159 -0.2004
  325EMC     H1 4122   3.773   2.674   4.013 -0.7627  1.4616  0.4512
  325EMC     H2 4123   3.945   2.652   4.044 -0.7232 -1.2528 -0.0538
  325EMC     H3 4124   3.871   2.795   4.110  1.7323  0.2065 -1.6870
  325EMC     C4 4125   3.492   2.387   4.256 -0.2518 -0.1407 -0.2732
  325EMC     H4 4126   3.599   2.505   4.105 -0.1756 -0.0469 -0.0710
  325EMC     H5 4127   3.489   2.608   4.180  0.2272  0.1870 -3.1607
  325EMC     H6 4128   3.433   2.396   4.348 -1.2936 -0.5178 -0.8872
  325EMC     H7 4129   3.576   2.321   4.279  0.0936  0.6462  0.7841
  325EMC     H8 4130   3.415   2.338   4.196 -1.5457  0.3159  0.9603
  326EMC     C1 4131   4.153   2.644   1.563 -0.6948  0.3713  0.4770
  326EMC     C2 4132   3.974   2.752   1.942  0.3167 -0.1291 -0.3797
  326EMC     C3 4133   4.142   2.756   1.777 -0.1481 -0.2448  1.2784
  326EMC     O1 4134   4.153   2.647   1.705  0.4619 -0.5744  0.1624
  326EMC     O2 4135   4.075   2.685   1.867 -0.8610  0.6096 -0.1498
  326EMC     O3 4136   4.108   2.868   1.728  0.0081 -0.2651 -0.2476
  326EMC     H1 4137   4.056   2.639   1.514  0.6602  0.4251 -2.3839
  326EMC     H2 4138   4.210   2.554   1.540  0.3044  1.1517 -0.1936
  326EMC     H3 4139   4.216   2.720   1.516 -1.4998 -0.3242 -1.8392
  326EMC     C4 4140   3.834   2.674   1.943  0.4847  0.0598  0.1312
  326EMC     H4 4141   3.965   2.858   1.918 -3.3394 -0.5006 -1.2487
  326EMC     H5 4142   3.994   2.749   2.049 -0.5879 -1.2144 -0.2198
  326EMC     H6 4143   3.761   2.733   1.997  0.2686  0.2735 -0.3889
  326EMC     H7 4144   3.851   2.571   1.977 -1.0795 -0.0351  0.6887
  326EMC     H8 4145   3.788   2.681   1.844 -0.8313  2.4733  0.8519
  327EMC     C1 4146   4.227   3.572   1.478 -0.2972  0.7805 -0.6102
  327EMC     C2 4147   0.049   3.391   1.277 -0.3413  0.3730 -0.2538
  327EMC     C3 4148   4.445   3.475   1.475 -0.2926 -0.3541 -0.2055
  327EMC     O1 4149   4.320   3.486   1.421 -0.7744  0.3513  0.0576
  327EMC     O2 4150   0.006   3.375   1.413 -0.1503 -0.4994  0.5646
  327EMC     O3 4151   4.463   3.496   1.593 -0.3866  0.4347 -0.0506
  327EMC     H1 4152   4.126   3.556   1.439 -0.6221 -2.6849  1.2368
  327EMC     H2 4153   4.268   3.672   1.464  0.3823  0.8157  1.3601
  327EMC     H3 4154   4.215   3.561   1.586 -0.8973  1.3811 -0.6073
  327EMC     C4 4155   0.159   3.295   1.246 -0.3050  1.0100  0.1980
  327EMC     H4 4156   0.080   3.496   1.270  2.6752 -0.3549  0.7995
  327EMC     H5 4157   4.457   3.387   1.212  0.2522  1.2509 -1.1566
  327EMC     H6 4158   0.240   3.295   1.319  0.9540 -1.1671 -1.0884
  327EMC     H7 4159   0.220   3.305   1.155 -1.2126 -1.3594 -0.7488
  327EMC     H8 4160   0.117   3.195   1.241  0.1159  0.8225  0.3874
  328EMC     C1 4161   0.902   1.881   4.030  0.0923 -0.6616 -0.1230
  328EMC     C2 4162   0.628   1.746   4.310 -0.4902  0.6128  0.3818
  328EMC     C3 4163   0.731   1.726   4.106  0.3879 -0.1043  1.6901
  328EMC     O1 4164   0.868   1.750   4.085 -0.1022 -0.6422  0.1181
  328EMC     O2 4165   0.729   1.695   4.235  0.2739  0.1933 -0.2530
  328EMC     O3 4166   0.640   1.796   4.054 -0.1192  0.3683  0.3948
  328EMC     H1 4167   0.874   1.886   3.925  0.5509 -0.3755 -0.2324
  328EMC     H2 4168   1.010   1.882   4.046  0.6345 -1.4672 -3.0940
  328EMC     H3 4169   0.862   1.968   4.083 -0.4126 -0.4272 -0.8691
  328EMC     C4 4170   0.613   1.669   4.442 -0.0970 -0.5674  0.2288
  328EMC     H4 4171   0.541   1.729   4.247 -1.5803  2.1154  1.4011
  328EMC     H5 4172   0.641   1.854   4.319  0.5392  0.4558  0.9897
  328EMC     H6 4173   0.545   1.720   0.014  1.2259  0.2667  0.9539
  328EMC     H7 4174   0.710   1.658   4.491 -0.2474 -0.7651  0.4875
  328EMC     H8 4175   0.576   1.568   4.426  0.3188 -0.8321  0.8722
  329EMC     C1 4176   2.572   1.710   2.058 -0.1138  0.1239  0.0796
  329EMC     C2 4177   2.755   2.099   1.999  0.0700  0.3999 -0.3338
  329EMC     C3 4178   2.570   1.947   2.014 -0.7683 -0.4191  0.3154
  329EMC     O1 4179   2.614   1.847   2.089  0.2389 -0.1348  0.4863
  329EMC     O2 4180   2.685   1.990   2.062 -0.0952  0.3925 -0.0055
  329EMC     O3 4181   2.537   1.945   1.898 -0.8037  0.2563  0.6406
  329EMC     H1 4182   2.627   1.641   2.121  1.1862  0.6302 -0.4745
  329EMC     H2 4183   2.606   1.689   1.956  0.0382 -1.8202  0.5084
  329EMC     H3 4184   2.466   1.702   2.081 -0.0765  0.7139  0.4797
  329EMC     C4 4185   2.903   2.099   2.020 -0.7081  0.0014 -0.1544
  329EMC     H4 4186   2.729   2.194   2.047 -1.3335  0.2000 -0.6620
  329EMC     H5 4187   2.731   2.109   1.893 -1.1378  1.8301  0.0505
  329EMC     H6 4188   2.932   2.148   2.113  1.0608  1.4752 -1.4169
  329EMC     H7 4189   2.927   2.174   1.945  0.5617 -0.8485 -0.6287
  329EMC     H8 4190   2.956   2.004   2.009  0.2382  0.7525 -2.3449
  330EMC     C1 4191   2.015   1.522   1.273 -0.5417 -0.0019  0.0537
  330EMC     C2 4192   2.376   1.644   1.051  0.2862  0.0395 -0.7431
  330EMC     C3 4193   2.181   1.659   1.190  0.2764 -0.0982 -0.6043
  330EMC     O1 4194   2.067   1.603   1.172 -0.4309 -0.0319 -0.4196
  330EMC     O2 4195   2.240   1.662   1.065  0.2915  0.2260  0.0793
  330EMC     O3 4196   2.258   1.644   1.287  0.6412 -0.4675  0.0678
  330EMC     H1 4197   2.055   1.421   1.262 -0.3569  0.2800 -2.4364
  330EMC     H2 4198   1.909   1.509   1.249 -1.2359  1.5543  1.9324
  330EMC     H3 4199   2.028   1.554   1.377  2.1567  1.6958 -0.7123
  330EMC     C4 4200   2.422   1.621   0.910 -0.5769 -0.4368  0.6651
  330EMC     H4 4201   2.419   1.567   1.115 -0.3190  2.2786  2.6019
  330EMC     H5 4202   2.424   1.737   1.083 -0.6005  0.6658 -1.1926
  330EMC     H6 4203   2.351   1.553   0.865  1.6795 -2.4770  0.0196
  330EMC     H7 4204   2.520   1.573   0.908 -0.0080  0.6170  1.7005
  330EMC     H8 4205   2.426   1.712   0.849 -0.8773  2.3952  4.4772
  331EMC     C1 4206   0.547   3.086   0.775  1.1193  0.0422  0.2489
  331EMC     C2 4207   0.136   3.108   0.774  0.0200 -0.2549 -0.0369
  331EMC     C3 4208   0.332   3.024   0.683  0.1014 -1.2590  0.0078
  331EMC     O1 4209   0.429   3.115   0.695 -0.5594 -0.3970 -0.1383
  331EMC     O2 4210   0.244   3.116   0.692 -0.1164  0.2210  0.3940
  331EMC     O3 4211   0.336   2.925   0.754  0.1402  0.1528  0.0261
  331EMC     H1 4212   0.611   3.173   0.759 -0.9075  1.6719  0.5197
  331EMC     H2 4213   0.593   2.996   0.735  1.5732  0.3451  0.0691
  331EMC     H3 4214   0.518   3.073   0.879  1.7407 -3.1819  0.1179
  331EMC     C4 4215   0.026   3.205   0.733 -0.1259  0.6613  0.4674
  331EMC     H4 4216   0.178   3.136   0.871  1.8863  1.6492 -1.3378
  331EMC     H5 4217   0.086   3.011   0.782  0.9120 -0.6611  0.9848
  331EMC     H6 4218   0.058   3.309   0.737 -2.3306  1.6903 -3.7047
  331EMC     H7 4219   4.424   3.184   0.775 -0.0329 -0.3114  0.2355
  331EMC     H8 4220   0.007   3.207   0.626  1.1421  0.7868  0.2217
  332EMC     C1 4221   4.160   2.423   0.344 -0.6964 -0.6012 -0.5391
  332EMC     C2 4222   0.070   2.436   0.373  0.2595 -0.5255  0.3462
  332EMC     C3 4223   4.366   2.489   0.255  0.8806 -0.1969  0.2338
  332EMC     O1 4224   4.288   2.389   0.290  0.2756  0.3345  0.6261
  332EMC     O2 4225   4.465   2.399   0.282 -0.3084  1.0043  0.1069
  332EMC     O3 4226   4.361   2.606   0.293 -0.2203 -0.1572  0.5004
  332EMC     H1 4227   4.113   2.338   0.393 -1.7749  1.1742  1.7219
  332EMC     H2 4228   4.087   2.458   0.272 -1.4795 -1.5951 -0.2547
  332EMC     H3 4229   4.180   2.494   0.425 -1.4016 -0.1356 -0.7700
  332EMC     C4 4230   0.186   2.336   0.372  0.1937  0.0830 -0.3825
  332EMC     H4 4231   0.033   2.443   0.475  0.7239  2.0291  0.4197
  332EMC     H5 4232   0.089   2.539   0.343 -3.7080 -0.0973 -1.3836
  332EMC     H6 4233   0.159   2.230   0.367 -0.8704  0.3558 -0.7138
  332EMC     H7 4234   0.242   2.349   0.465  0.4304  0.0906 -0.5255
  332EMC     H8 4235   0.264   2.353   0.298  0.0642  1.1933 -0.2866
  333EMC     C1 4236   1.754   4.396   1.606  0.0897 -0.1825 -0.0278
  333EMC     C2 4237   2.041   4.169   1.695 -0.0173  0.4376 -0.2976
  333EMC     C3 4238   1.987   4.356   1.564 -1.4455  0.1985  0.5336
  333EMC     O1 4239   1.893   4.408   1.636  0.2262 -0.2635  0.0239
  333EMC     O2 4240   2.008   4.302   1.691 -0.8078  0.1000  0.5778
  333EMC     O3 4241   1.967   4.288   1.467  0.0259  0.0510 -0.0344
  333EMC     H1 4242   1.720   4.407   1.503 -1.8937 -0.9488  0.4971
  333EMC     H2 4243   1.687   4.471   1.649 -0.8429 -0.6764 -0.5975
  333EMC     H3 4244   1.716   4.307   1.655 -0.3604 -0.1662 -0.3498
  333EMC     C4 4245   2.083   4.133   1.830  0.0395  0.3088  0.7628
  333EMC     H4 4246   2.124   4.140   1.630 -1.3014 -0.7858 -1.4392
  333EMC     H5 4247   1.956   4.105   1.673  0.4551 -1.5440  2.9691
  333EMC     H6 4248   2.177   4.179   1.861  1.9803 -1.5369 -1.9284
  333EMC     H7 4249   2.103   4.026   1.839  0.9153  0.3650 -0.4155
  333EMC     H8 4250   1.992   4.155   1.887 -1.4878 -1.7685 -0.6802
  334EMC     C1 4251   3.263   1.235   0.134  0.0391  0.2359 -0.4531
  334EMC     C2 4252   3.385   0.902   0.410 -1.2852  0.2554  0.0898
  334EMC     C3 4253   3.253   1.083   0.316  0.3083 -0.0810  0.3867
  334EMC     O1 4254   3.278   1.209   0.270  0.1868 -0.0821 -0.9556
  334EMC     O2 4255   3.355   1.041   0.398 -0.4125 -0.3410 -0.4344
  334EMC     O3 4256   3.178   0.998   0.261  0.0535 -0.6113  0.0024
  334EMC     H1 4257   3.360   1.221   0.087 -0.1053  3.9373 -2.1372
  334EMC     H2 4258   3.248   1.341   0.113  2.4012  1.4163  2.9191
  334EMC     H3 4259   3.196   1.163   0.086 -1.3055  0.8143  0.4666
  334EMC     C4 4260   3.505   0.890   0.511 -0.5550  0.3146 -0.2325
  334EMC     H4 4261   3.424   0.855   0.319 -3.4206 -0.7208 -0.3789
  334EMC     H5 4262   3.289   0.866   0.446 -1.9996  2.1455  0.1672
  334EMC     H6 4263   3.479   0.956   0.594 -0.3729  1.7183 -1.2562
  334EMC     H7 4264   3.598   0.932   0.474 -0.3607 -0.0571 -0.1797
  334EMC     H8 4265   3.534   0.791   0.548  0.5930  1.1961  1.3227
  335EMC     C1 4266   0.218   0.985   0.500 -0.2150  0.0039  0.3494
  335EMC     C2 4267   4.369   1.259   0.675  0.0408  0.7248 -0.8454
  335EMC     C3 4268   0.050   1.125   0.605  0.3883  0.3462  0.4085
  335EMC     O1 4269   0.126   1.093   0.495 -0.7164 -0.5652  0.1080
  335EMC     O2 4270   4.468   1.232   0.576  0.3939 -0.1641  0.4540
  335EMC     O3 4271   0.016   1.036   0.683 -0.1908 -0.3084  0.7350
  335EMC     H1 4272   0.283   0.994   0.412 -1.5774 -0.0677 -0.6999
  335EMC     H2 4273   0.163   0.891   0.500 -3.7349  1.8897  0.2502
  335EMC     H3 4274   0.285   0.993   0.585  1.4167 -1.2804 -0.7603
  335EMC     C4 4275   4.315   1.398   0.651  0.3386 -1.0905  0.5616
  335EMC     H4 4276   4.406   1.241   0.776 -3.0418 -0.7878  0.1423
  335EMC     H5 4277   4.290   1.184   0.666  0.9468 -0.8149  2.4827
  335EMC     H6 4278   4.283   1.435   0.553  1.4883  2.8615  1.4943
  335EMC     H7 4279   4.390   1.468   0.688 -2.2375  2.3710 -0.2115
  335EMC     H8 4280   4.225   1.408   0.712 -0.1178 -0.7195 -0.1488
  336EMC     C1 4281   2.123   2.708   3.210  0.2466 -0.8582 -0.3259
  336EMC     C2 4282   2.150   2.851   2.873  0.1311  0.3885 -0.8325
  336EMC     C3 4283   2.047   2.671   2.980 -0.0491  0.0291 -0.0325
  336EMC     O1 4284   2.137   2.647   3.085  0.0720 -0.3105  0.4969
  336EMC     O2 4285   2.162   2.719   2.925  0.2483 -0.3382 -0.3380
  336EMC     O3 4286   1.940   2.735   2.987 -0.2273 -0.3599 -0.3293
  336EMC     H1 4287   2.079   2.639   3.282 -4.1511  0.3427 -1.5469
  336EMC     H2 4288   2.075   2.806   3.208  2.2463  0.3569  2.6638
  336EMC     H3 4289   2.221   2.732   3.251 -0.7824  1.5254  0.9960
  336EMC     C4 4290   2.260   2.872   2.774  1.4792  0.7687  0.3841
  336EMC     H4 4291   2.167   2.913   2.961  2.0662 -2.3708  0.9292
  336EMC     H5 4292   2.057   2.860   2.817 -0.2041 -1.8335 -0.7088
  336EMC     H6 4293   2.228   2.957   2.714 -1.9407 -1.5873 -1.4538
  336EMC     H7 4294   2.260   2.785   2.708  1.9998 -0.4220  1.8911
  336EMC     H8 4295   2.357   2.879   2.822  1.7613  0.4507 -0.1309
  337EMC     C1 4296   0.014   3.511   3.797 -0.6060 -0.2625 -0.0436
  337EMC     C2 4297   0.302   3.672   4.002 -0.5226  0.4964  0.0212
  337EMC     C3 4298   0.094   3.715   3.892  1.2553 -0.1618 -0.4226
  337EMC     O1 4299   0.093   3.634   3.777  0.6338 -0.2485 -0.1939
  337EMC     O2 4300   0.235   3.719   3.887  0.5507  0.2420  0.2176
  337EMC     O3 4301   0.031   3.693   3.995 -0.2293  0.6171  0.2776
  337EMC     H1 4302   0.031   3.471   3.897  0.0552  0.6135  0.2103
  337EMC     H2 4303   0.035   3.431   3.727  1.4551  0.4820 -0.3632
  337EMC     H3 4304   4.403   3.531   3.793 -0.4349  1.2240  1.2854
  337EMC     C4 4305   0.455   3.698   3.990 -0.1814  0.1158 -0.0534
  337EMC     H4 4306   0.278   3.567   4.014  0.8482  0.3130  1.3876
  337EMC     H5 4307   0.254   3.729   4.082 -1.1387  1.4640 -0.9923
  337EMC     H6 4308   0.504   3.615   3.939 -0.5988 -1.6902  2.2947
  337EMC     H7 4309   0.503   3.696   4.088 -0.3198 -2.5969  0.0230
  337EMC     H8 4310   0.476   3.795   3.944  0.3891  0.3866  0.7450
  338EMC     C1 4311   2.798   3.199   0.884 -0.1837 -0.2659 -0.4429
  338EMC     C2 4312   3.058   3.205   0.499  0.2030 -0.2331  0.2790
  338EMC     C3 4313   2.972   3.204   0.725 -0.0712 -0.2004 -0.4649
  338EMC     O1 4314   2.872   3.271   0.793 -0.0207  0.5010  0.1207
  338EMC     O2 4315   2.960   3.241   0.594  0.1835  0.0762  0.6098
  338EMC     O3 4316   3.020   3.096   0.761 -0.8152  0.1966  0.3174
  338EMC     H1 4317   2.741   3.117   0.840 -0.7236 -0.4066  0.4900
  338EMC     H2 4318   2.743   3.279   0.934  2.9026  0.5623  1.9563
  338EMC     H3 4319   2.861   3.172   0.968 -1.2287  1.6958  1.0637
  338EMC     C4 4320   3.030   3.244   0.353 -0.1667  0.2074  0.5427
  338EMC     H4 4321   3.065   3.097   0.504  1.2426 -0.2042 -0.3764
  338EMC     H5 4322   3.151   3.254   0.528  1.0162 -1.3551 -0.3859
  338EMC     H6 4323   3.070   3.170   0.283 -2.2943 -0.5557  0.0625
  338EMC     H7 4324   3.049   3.350   0.332  0.7951 -0.2855 -1.3023
  338EMC     H8 4325   2.924   3.237   0.332  0.2592  0.5170 -2.0632
  339EMC     C1 4326   3.975   1.817   2.270  0.3939  0.2672  0.2275
  339EMC     C2 4327   3.752   2.110   2.129  0.2959 -0.2992 -0.6056
  339EMC     C3 4328   3.775   1.940   2.290  0.2491 -0.3587  0.4761
  339EMC     O1 4329   3.836   1.839   2.234  0.0459  0.1979 -0.1165
  339EMC     O2 4330   3.730   1.977   2.168  0.6031 -0.3611 -0.0156
  339EMC     O3 4331   3.817   2.017   2.376  0.1463 -0.0984 -0.2999
  339EMC     H1 4332   4.016   1.747   2.197 -2.8280 -1.7020  0.0945
  339EMC     H2 4333   3.979   1.774   2.370  2.5387  0.6684  0.3671
  339EMC     H3 4334   4.029   1.912   2.271 -0.3742  0.7165  1.5263
  339EMC     C4 4335   3.678   2.149   2.002  0.5822  0.3312 -0.3073
  339EMC     H4 4336   3.856   2.136   2.109 -0.4430  4.0012  0.2396
  339EMC     H5 4337   3.718   2.178   2.207 -1.3972 -2.3319  0.5171
  339EMC     H6 4338   3.716   2.244   1.966  1.4156 -0.3463 -1.2528
  339EMC     H7 4339   3.574   2.152   2.034  1.4121  1.8552  2.6443
  339EMC     H8 4340   3.697   2.080   1.920  1.1863 -0.6349  0.6100
  340EMC     C1 4341   2.362   4.379   1.678  0.2097 -0.4214 -0.1714
  340EMC     C2 4342   2.362   4.036   1.466 -0.2820 -0.6737 -0.1686
  340EMC     C3 4343   2.403   4.273   1.464  0.0937 -0.5960  0.3040
  340EMC     O1 4344   2.361   4.266   1.592 -0.9279  0.5225  0.0788
  340EMC     O2 4345   2.327   4.171   1.426 -0.5638  0.0270  0.2301
  340EMC     O3 4346   2.391   4.384   1.407  1.0045  0.5171  0.4428
  340EMC     H1 4347   2.291   4.459   1.655 -0.8176 -1.0093  0.8592
  340EMC     H2 4348   2.459   4.418   1.708 -0.1398 -0.0984  0.5503
  340EMC     H3 4349   2.331   4.349   1.778 -0.7253  2.0398  0.3633
  340EMC     C4 4350   2.248   3.929   1.429 -0.4344  0.0705 -0.6499
  340EMC     H4 4351   2.387   4.035   1.572  0.6735  0.1469 -0.3691
  340EMC     H5 4352   2.452   4.013   1.409 -0.5758 -0.4097 -0.7603
  340EMC     H6 4353   2.147   3.966   1.441 -0.5018 -0.0823 -0.7373
  340EMC     H7 4354   2.273   3.832   1.471  1.4976  1.4509  1.6345
  340EMC     H8 4355   2.262   3.923   1.321 -0.6743 -0.0376 -0.6743
  341EMC     C1 4356   2.868   1.200   0.131 -0.0974 -0.6810 -0.9732
  341EMC     C2 4357   3.040   0.942   4.445 -0.3397 -0.5620 -0.9270
  341EMC     C3 4358   2.868   1.106   4.406  0.4922  0.3270 -0.5548
  341EMC     O1 4359   2.930   1.179   0.005 -0.9719 -0.2783 -0.4403
  341EMC     O2 4360   3.001   1.074   4.413 -0.0900 -0.0002 -0.1642
  341EMC     O3 4361   2.774   1.027   4.436 -0.0893 -0.1226 -0.7280
  341EMC     H1 4362   2.759   1.193   0.125 -0.2017 -0.8491  0.6061
  341EMC     H2 4363   2.880   1.298   0.178  0.4044 -0.9663 -0.4969
  341EMC     H3 4364   2.892   1.117   0.197 -0.1532 -1.1774 -1.5722
  341EMC     C4 4365   3.027   0.834   4.341 -0.1001  0.5784  0.1821
  341EMC     H4 4366   2.979   0.912   0.034 -0.4216 -0.4769 -0.9558
  341EMC     H5 4367   3.138   0.933   4.492 -1.5693  0.8336  2.1593
  341EMC     H6 4368   2.934   0.830   4.285  0.7522  0.4037 -1.2539
  341EMC     H7 4369   3.039   0.739   4.394  0.1278  1.3510  1.5688
  341EMC     H8 4370   3.110   0.827   4.271  0.1917  2.1301  0.3403
  342EMC     C1 4371   2.492   1.231   4.478  0.0673  0.6592 -0.1394
  342EMC     C2 4372   2.237   0.919   4.431  0.6196  0.0040 -0.5438
  342EMC     C3 4373   2.422   1.015   0.052 -0.0418  0.9787  0.4754
  342EMC     O1 4374   2.392   1.138   0.033  0.0637 -0.4968  0.2260
  342EMC     O2 4375   2.292   1.017   0.019 -1.0154 -0.1340 -0.2102
  342EMC     O3 4376   2.503   0.946   4.487 -0.6270 -0.5421 -0.1468
  342EMC     H1 4377   2.521   1.301   0.060  0.7096  0.1518  0.0868
  342EMC     H2 4378   2.445   1.275   4.390 -2.2805 -1.4607 -0.0686
  342EMC     H3 4379   2.580   1.180   4.439 -2.6929 -3.0970 -2.2072
  342EMC     C4 4380   2.227   0.973   4.287 -0.3494 -0.4377 -0.2306
  342EMC     H4 4381   2.142   0.887   4.475  1.2800 -2.0375 -0.5024
  342EMC     H5 4382   2.299   0.830   4.422  2.4591  1.1842  0.0731
  342EMC     H6 4383   2.322   0.977   4.234  0.2834  2.2509  0.9027
  342EMC     H7 4384   2.204   1.080   4.296  0.3458 -0.2302 -0.8082
  342EMC     H8 4385   2.157   0.915   4.226 -2.0950 -0.0196  1.2659
  343EMC     C1 4386   2.787   2.353   3.332  0.0075  0.0030  0.1201
  343EMC     C2 4387   2.885   2.659   3.540  0.6934 -0.1005  0.3667
  343EMC     C3 4388   2.748   2.471   3.538 -0.2596  0.4128 -0.1241
  343EMC     O1 4389   2.801   2.365   3.473 -0.8307  0.4521  0.0902
  343EMC     O2 4390   2.870   2.520   3.524 -0.6686 -0.1780 -0.3426
  343EMC     O3 4391   2.652   2.529   3.504 -0.0284 -0.5342  0.3233
  343EMC     H1 4392   2.721   2.266   3.326  1.6276 -1.2629 -0.5002
  343EMC     H2 4393   2.874   2.316   3.276 -0.5434  1.0691 -1.5123
  343EMC     H3 4394   2.737   2.438   3.287 -1.5001 -0.7502  0.3051
  343EMC     C4 4395   3.029   2.682   3.593 -0.7914  0.3310 -0.7970
  343EMC     H4 4396   2.809   2.709   3.599  0.9648  1.4604 -0.5455
  343EMC     H5 4397   2.868   2.694   3.438 -1.1964 -0.8804  0.3721
  343EMC     H6 4398   3.046   2.783   3.629 -3.6583 -0.1269  2.4251
  343EMC     H7 4399   3.106   2.633   3.533 -0.2575  0.4505 -0.2142
  343EMC     H8 4400   3.019   2.626   3.686  0.6392  1.8632  0.3329
  344EMC     C1 4401   2.409   3.939   3.259  0.4258  0.2997  0.3303
  344EMC     C2 4402   2.165   4.263   3.322 -0.1090  0.1039 -0.1320
  344EMC     C3 4403   2.196   4.027   3.307  0.2393  0.1391 -0.4094
  344EMC     O1 4404   2.295   4.014   3.218  0.1342 -0.5945 -0.9624
  344EMC     O2 4405   2.182   4.138   3.245  0.8190  0.0566  0.2194
  344EMC     O3 4406   2.215   4.015   3.430 -0.1530  0.3850  0.7817
  344EMC     H1 4407   2.467   3.999   3.330 -1.4365  2.0753  0.4315
  344EMC     H2 4408   2.457   3.931   3.162 -1.6792  1.8273 -0.9342
  344EMC     H3 4409   2.375   3.840   3.289  0.9504 -0.7460 -2.3275
  344EMC     C4 4410   2.175   4.385   3.225 -0.2611  0.6463  0.5985
  344EMC     H4 4411   2.249   4.265   3.393 -0.9016  1.4878  0.8288
  344EMC     H5 4412   2.065   4.263   3.365  0.2453 -1.7633  0.8168
  344EMC     H6 4413   2.179   4.475   3.286  0.8790  0.8260  0.2770
  344EMC     H7 4414   2.079   4.389   3.172 -1.7278  4.1725  3.1110
  344EMC     H8 4415   2.258   4.371   3.156 -1.8334 -2.1565 -0.9765
  345EMC     C1 4416   4.216   4.235   2.325  0.0572  0.2316 -0.4667
  345EMC     C2 4417   4.410   4.026   2.613  0.7926 -0.7579  0.2715
  345EMC     C3 4418   4.228   4.061   2.472  0.5271 -0.2653 -0.0692
  345EMC     O1 4419   4.210   4.099   2.355  0.4273 -0.4332 -0.4930
  345EMC     O2 4420   4.358   4.080   2.493 -0.3312  0.8788 -0.0415
  345EMC     O3 4421   4.170   3.966   2.520 -0.0174 -0.1221  0.2565
  345EMC     H1 4422   4.137   4.247   2.251  1.1663  0.1677 -1.6889
  345EMC     H2 4423   4.309   4.268   2.278  1.3927  1.2119  2.6175
  345EMC     H3 4424   4.177   4.296   2.407  1.1427  1.8603 -1.1090
  345EMC     C4 4425   0.069   4.017   2.591  0.1380 -0.0869  0.4981
  345EMC     H4 4426   4.381   3.921   2.626 -0.7197 -0.4463 -0.3902
  345EMC     H5 4427   4.377   4.085   2.699 -1.0528 -1.5408  0.1556
  345EMC     H6 4428   0.117   3.990   2.685  0.1835 -1.3633  0.1341
  345EMC     H7 4429   0.115   4.108   2.555  2.3395 -1.1028  0.5643
  345EMC     H8 4430   0.079   3.933   2.522  2.3681 -1.0797  1.9211
  346EMC     C1 4431   2.443   3.742   1.859 -0.2051 -0.1041 -0.1437
  346EMC     C2 4432   2.871   3.887   1.924  0.7533  0.1236  0.5992
  346EMC     C3 4433   2.675   3.766   1.861  0.4386  0.3700 -0.2340
  346EMC     O1 4434   2.565   3.731   1.925  0.4337  0.2910  0.4352
  346EMC     O2 4435   2.778   3.784   1.946  0.0018  0.6332  0.1305
  346EMC     O3 4436   2.673   3.815   1.747 -0.1082  0.1121  0.0648
  346EMC     H1 4437   2.372   3.777   1.934 -0.9902 -1.6848 -0.0969
  346EMC     H2 4438   2.428   3.643   1.815  0.9156 -0.7946  0.9597
  346EMC     H3 4439   2.451   3.820   1.783  0.8641 -0.2841 -0.2282
  346EMC     C4 4440   2.940   3.905   2.056 -0.0108  0.5882 -0.4738
  346EMC     H4 4441   2.830   3.986   1.905  1.7878  0.7581  1.5311
  346EMC     H5 4442   2.931   3.851   1.841  2.5907 -0.4844  2.1391
  346EMC     H6 4443   2.979   3.812   2.096 -2.6824  0.2789  1.7469
  346EMC     H7 4444   2.869   3.946   2.128 -0.6819 -2.4517  0.7592
  346EMC     H8 4445   3.016   3.983   2.055 -0.6481  1.2957  1.5014
  347EMC     C1 4446   4.492   2.061   1.742  0.3049 -0.4395  0.3437
  347EMC     C2 4447   4.195   1.944   1.938  0.0818 -0.2866 -0.0212
  347EMC     C3 4448   4.264   2.006   1.715 -0.9413  0.2007  0.4031
  347EMC     O1 4449   4.359   2.100   1.728 -0.0885 -0.0983 -0.6702
  347EMC     O2 4450   4.239   2.045   1.843 -0.0545 -0.0732  0.1617
  347EMC     O3 4451   4.298   1.888   1.685 -0.2506  0.3325  0.4900
  347EMC     H1 4452   0.004   1.971   1.681  1.2451  0.2879 -0.6421
  347EMC     H2 4453   0.029   2.049   1.846 -1.5251  1.9366  1.2980
  347EMC     H3 4454   0.066   2.138   1.712  1.2466 -0.6580  1.8918
  347EMC     C4 4455   4.303   1.901   2.029 -0.0276  0.2816 -0.1252
  347EMC     H4 4456   4.146   1.857   1.894  1.3600 -1.4346  0.7404
  347EMC     H5 4457   4.122   2.002   1.995  1.4287  0.3036  1.1629
  347EMC     H6 4458   4.276   1.840   2.115  0.6287  2.6530  1.8714
  347EMC     H7 4459   4.376   1.971   2.069 -0.1100  0.0519  0.4417
  347EMC     H8 4460   4.375   1.840   1.974  0.3381  0.0536  0.5971
  348EMC     C1 4461   4.387   3.924   4.271  0.0321 -0.1576  0.4632
  348EMC     C2 4462   0.287   3.987   4.244 -0.0565 -0.1366 -0.6209
  348EMC     C3 4463   0.101   3.839   4.327 -0.2898  0.2109 -0.7158
  348EMC     O1 4464   0.013   3.929   4.353 -0.2694  0.1012 -0.2301
  348EMC     O2 4465   0.169   3.907   4.219  0.7629  0.1029 -0.3049
  348EMC     O3 4466   0.169   3.789   4.416 -0.0709  0.2384  0.1468
  348EMC     H1 4467   4.341   3.826   4.261 -0.8698  0.4806 -2.4994
  348EMC     H2 4468   4.383   3.980   4.178 -1.7143 -0.2715  0.4449
  348EMC     H3 4469   4.320   3.989   4.328  0.2187  0.3360  0.1318
  348EMC     C4 4470   0.286   4.116   4.328  0.0620 -0.0934 -0.0090
  348EMC     H4 4471   0.315   4.022   4.145  1.0306  0.7987 -0.0082
  348EMC     H5 4472   0.363   3.922   4.287 -0.8775  0.3730  1.7910
  348EMC     H6 4473   0.259   4.090   4.430  1.4826  0.0801  0.4248
  348EMC     H7 4474   0.227   4.189   4.272 -1.6915 -1.5707 -0.1838
  348EMC     H8 4475   0.383   4.166   4.332 -0.1057  0.6225 -2.7313
  349EMC     C1 4476   0.226   1.046   2.306  0.1434 -0.6791 -0.0622
  349EMC     C2 4477   0.081   0.676   2.356 -0.2519  0.1614 -0.5328
  349EMC     C3 4478   0.269   0.820   2.376 -0.6151  0.4241 -0.5029
  349EMC     O1 4479   0.256   0.909   2.277 -0.4360  0.1137  0.0906
  349EMC     O2 4480   0.190   0.744   2.295  0.1747  0.0475  0.1694
  349EMC     O3 4481   0.245   0.849   2.494  0.0428 -0.4991  0.2870
  349EMC     H1 4482   0.276   1.112   2.235  1.1168 -1.3640 -0.0312
  349EMC     H2 4483   0.246   1.070   2.410 -0.8584  0.7857 -0.1698
  349EMC     H3 4484   0.122   1.072   2.289 -0.5012 -1.2290  2.6802
  349EMC     C4 4485   0.011   0.567   2.271  0.3291 -0.1484 -0.2100
  349EMC     H4 4486   0.017   0.748   2.408  1.9747  1.8749 -0.0263
  349EMC     H5 4487   0.123   0.613   2.435 -3.0264  0.2540  1.1800
  349EMC     H6 4488   0.081   0.518   2.204  0.6366  0.0580 -0.0457
  349EMC     H7 4489   4.436   0.624   2.210 -0.1587 -0.0513  0.4329
  349EMC     H8 4490   4.454   0.495   2.333  0.8154  0.1653  0.5854
  350EMC     C1 4491   3.149   4.246   0.156  0.1548 -0.2789  0.2177
  350EMC     C2 4492   2.999   0.135   0.193 -0.3956 -0.1488  0.3714
  350EMC     C3 4493   2.970   4.405   0.148 -0.0793  0.1537 -0.4517
  350EMC     O1 4494   3.078   4.355   0.208  0.2667  0.2373 -0.5817
  350EMC     O2 4495   2.970   0.005   0.239  0.4488  0.3264  0.2537
  350EMC     O3 4496   2.955   4.411   0.025  0.2160  0.0156 -0.1550
  350EMC     H1 4497   3.221   4.197   0.222  1.5024  1.3698  0.0147
  350EMC     H2 4498   3.192   4.277   0.062 -0.4896  1.8290  0.5629
  350EMC     H3 4499   3.071   4.172   0.137  1.1054 -0.6765 -2.5665
  350EMC     C4 4500   3.052   0.221   0.307  0.3477  0.3761 -0.2260
  350EMC     H4 4501   2.923   0.173   0.125  1.2986 -0.9477 -2.1285
  350EMC     H5 4502   3.082   0.127   0.122 -1.1597 -2.1385 -0.3486
  350EMC     H6 4503   3.117   0.152   0.361 -0.1885  0.0816  0.0562
  350EMC     H7 4504   2.979   0.264   0.376 -1.5257  0.0805 -1.9409
  350EMC     H8 4505   3.115   0.301   0.269  0.9099 -0.6950 -1.6440
  351EMC     C1 4506   2.151   1.710   2.200 -0.4402  1.0646  0.3248
  351EMC     C2 4507   2.155   2.083   1.976 -0.4081 -0.0689  0.1905
  351EMC     C3 4508   2.162   1.949   2.170 -0.4171 -0.5762 -0.3314
  351EMC     O1 4509   2.085   1.834   2.180  1.0567  0.3537 -0.2819
  351EMC     O2 4510   2.085   2.007   2.076  0.1859 -0.0030  0.5109
  351EMC     O3 4511   2.281   1.948   2.165  0.0368 -0.2247 -0.2810
  351EMC     H1 4512   2.153   1.691   2.307  2.7818 -0.8192  0.0615
  351EMC     H2 4513   2.254   1.716   2.165 -0.5139 -0.4076 -0.2150
  351EMC     H3 4514   2.105   1.623   2.152  0.1849  0.5204  0.6922
  351EMC     C4 4515   2.060   2.104   1.855 -0.1346 -0.0999  0.0886
  351EMC     H4 4516   2.246   2.031   1.944 -1.0966 -0.2828 -1.5036
  351EMC     H5 4517   2.194   2.170   2.029 -1.3027  0.7347 -0.4274
  351EMC     H6 4518   1.964   2.149   1.881 -0.1074 -1.6255  3.3392
  351EMC     H7 4519   2.040   2.010   1.804 -0.5978  0.2580 -0.4057
  351EMC     H8 4520   2.103   2.168   1.778  1.3660  1.3604  2.0531
  352EMC     C1 4521   1.066   1.651   4.454 -0.7064  0.0313 -0.0519
  352EMC     C2 4522   1.042   1.505   0.398  0.5758 -0.5510  1.0516
  352EMC     C3 4523   1.041   1.617   0.189  0.1678 -1.5535  0.4072
  352EMC     O1 4524   1.117   1.641   0.090  0.1665 -0.8952  0.6894
  352EMC     O2 4525   1.101   1.592   0.302 -0.7783  0.2780  0.5889
  352EMC     O3 4526   0.920   1.626   0.187 -0.1718  0.7178  0.0648
  352EMC     H1 4527   1.030   1.559   4.409  3.1230 -1.2764 -0.8855
  352EMC     H2 4528   1.159   1.673   4.401 -1.3581 -1.4618 -1.9551
  352EMC     H3 4529   0.982   1.720   4.455  0.7719  1.9210  0.9110
  352EMC     C4 4530   1.153   1.482   0.495 -0.3998  0.1572  0.1090
  352EMC     H4 4531   1.024   1.405   0.359 -1.7711 -0.6537  2.1933
  352EMC     H5 4532   0.957   1.545   0.453 -0.1930 -0.1479 -0.3957
  352EMC     H6 4533   1.192   1.576   0.536  1.8129  0.7010 -2.8651
  352EMC     H7 4534   1.234   1.423   0.452 -2.3271  0.2498 -4.0993
  352EMC     H8 4535   1.101   1.432   0.576 -1.1514  0.5598 -0.1107
  353EMC     C1 4536   3.862   0.503   1.134  0.8543 -0.2490  0.5404
  353EMC     C2 4537   3.691   0.810   1.340 -0.0622 -0.2102  0.2616
  353EMC     C3 4538   3.759   0.586   1.335  0.3229  1.0396  0.1512
  353EMC     O1 4539   3.754   0.494   1.234 -0.8065 -0.4529 -0.3662
  353EMC     O2 4540   3.716   0.689   1.268  0.3440 -0.3043 -0.5141
  353EMC     O3 4541   3.815   0.571   1.445  0.0220  0.6848  0.5438
  353EMC     H1 4542   3.868   0.418   1.066 -0.4264  0.8398 -0.9977
  353EMC     H2 4543   3.958   0.520   1.183  0.1801  1.8395  1.2265
  353EMC     H3 4544   3.860   0.590   1.068 -0.2604  0.1027  1.0308
  353EMC     C4 4545   3.615   0.914   1.253 -0.4385  0.4041  0.4143
  353EMC     H4 4546   3.788   0.856   1.362 -0.4669  1.0819 -0.5513
  353EMC     H5 4547   3.635   0.793   1.432 -0.5659 -0.4075 -0.0789
  353EMC     H6 4548   3.515   0.884   1.222  0.9308 -1.9950 -2.0473
  353EMC     H7 4549   3.680   0.931   1.167 -0.7016  1.6644  0.4409
  353EMC     H8 4550   3.620   1.000   1.320  0.0918  0.8467 -0.1776
  354EMC     C1 4551   3.501   3.091   1.285 -0.5990 -0.0055 -0.8470
  354EMC     C2 4552   3.626   2.740   1.475 -0.2250 -0.1793 -0.0729
  354EMC     C3 4553   3.636   2.891   1.296  0.2031 -0.6782 -0.6083
  354EMC     O1 4554   3.615   3.017   1.339  0.0474 -1.0430  0.2087
  354EMC     O2 4555   3.659   2.866   1.424 -0.0219 -0.0337 -0.3716
  354EMC     O3 4556   3.546   2.830   1.232  0.1698 -0.6639 -0.3705
  354EMC     H1 4557   3.427   3.081   1.365 -0.0860  0.6887 -0.2695
  354EMC     H2 4558   3.477   3.030   1.198  0.4600 -2.5817  0.5454
  354EMC     H3 4559   3.521   3.195   1.260  1.3832 -0.5544 -1.7259
  354EMC     C4 4560   3.737   2.648   1.435 -0.0567 -0.6073  0.3178
  354EMC     H4 4561   3.537   2.700   1.426  1.4909 -2.2184 -1.6750
  354EMC     H5 4562   3.629   2.745   1.584  3.7076 -1.1851 -0.0111
  354EMC     H6 4563   3.833   2.696   1.458  0.5286 -2.2923  1.6362
  354EMC     H7 4564   3.734   2.628   1.328  1.4011 -1.7111  0.4444
  354EMC     H8 4565   3.722   2.558   1.495  1.2324 -0.0972  1.4640
  355EMC     C1 4566   0.568   1.076   0.861 -0.4650 -0.3374  0.0046
  355EMC     C2 4567   0.185   1.187   0.932  0.0802 -0.4920 -0.2021
  355EMC     C3 4568   0.337   1.013   0.875 -0.1642  0.6897  0.3338
  355EMC     O1 4569   0.443   1.023   0.810 -0.0777  1.0608 -0.1382
  355EMC     O2 4570   0.263   1.118   0.839 -0.0218 -0.5519 -0.1365
  355EMC     O3 4571   0.331   0.965   0.988  0.8166  0.4605 -0.6932
  355EMC     H1 4572   0.611   1.007   0.934 -0.1732 -0.6299 -0.4373
  355EMC     H2 4573   0.566   1.179   0.898 -0.6461 -0.2374 -0.2833
  355EMC     H3 4574   0.635   1.069   0.776 -0.4146  0.6337 -0.0497
  355EMC     C4 4575   0.154   1.327   0.869  0.0468  0.4533  0.4305
  355EMC     H4 4576   0.239   1.197   1.026 -1.4586 -0.5749  0.7312
  355EMC     H5 4577   0.087   1.144   0.952  0.1816 -0.4223  0.4584
  355EMC     H6 4578   0.113   1.321   0.769  0.6032 -0.2599  0.2425
  355EMC     H7 4579   0.240   1.394   0.864 -0.0451  0.5350 -0.1197
  355EMC     H8 4580   0.070   1.381   0.912  0.2417  1.4596 -0.4240
  356EMC     C1 4581   4.485   1.774   3.525  0.3649 -0.0700  0.1943
  356EMC     C2 4582   0.407   1.869   3.713 -0.3955 -0.0886  0.1502
  356EMC     C3 4583   0.209   1.793   3.606 -0.1619  0.1321  0.2670
  356EMC     O1 4584   0.123   1.820   3.506 -0.1442 -0.3506  0.2468
  356EMC     O2 4585   0.314   1.874   3.607  0.2471  0.1370 -0.4834
  356EMC     O3 4586   0.177   1.735   3.714 -0.2412  0.2442  0.1847
  356EMC     H1 4587   4.425   1.818   3.446  0.6960 -0.0533 -0.0523
  356EMC     H2 4588   4.436   1.804   3.617 -1.9317 -1.0482 -0.6315
  356EMC     H3 4589   4.480   1.666   3.508 -0.7107  0.1731 -1.2346
  356EMC     C4 4590   0.504   1.988   3.698  0.1389 -0.1871  0.1310
  356EMC     H4 4591   0.457   1.773   3.727 -1.2233 -0.2439  2.3614
  356EMC     H5 4592   0.357   1.883   3.808  1.9711 -0.9458  1.6259
  356EMC     H6 4593   0.555   1.991   3.602 -1.4240 -0.7589 -0.7550
  356EMC     H7 4594   0.582   1.993   3.774  0.7239  0.5152 -0.5124
  356EMC     H8 4595   0.446   2.079   3.714 -0.5630 -0.8076  1.3054
  357EMC     C1 4596   1.479   0.513   1.014 -0.4469 -0.4822  0.5051
  357EMC     C2 4597   1.186   0.281   1.246 -0.2288  0.0823  0.5281
  357EMC     C3 4598   1.299   0.468   1.155 -0.1766  0.1409  0.4696
  357EMC     O1 4599   1.432   0.461   1.133 -0.1463  0.2368 -0.3727
  357EMC     O2 4600   1.293   0.368   1.236  0.3765 -0.1232 -0.5558
  357EMC     O3 4601   1.211   0.502   1.070 -0.2626 -0.1658 -0.3696
  357EMC     H1 4602   1.449   0.618   1.016 -1.6928 -0.8318  2.8347
  357EMC     H2 4603   1.427   0.465   0.931 -1.0577  0.1605  0.5052
  357EMC     H3 4604   1.588   0.524   1.009 -0.3369 -1.8874 -1.3838
  357EMC     C4 4605   1.186   0.224   1.390 -0.0498 -0.7973  0.1870
  357EMC     H4 4606   1.195   0.199   1.175  0.2619  0.0255  0.6534
  357EMC     H5 4607   1.090   0.321   1.214  0.4042  2.2050  1.1058
  357EMC     H6 4608   1.261   0.147   1.404 -0.7083 -1.4526  0.1585
  357EMC     H7 4609   1.087   0.181   1.405  0.2003 -3.2620 -3.7590
  357EMC     H8 4610   1.199   0.306   1.461 -0.7773  1.4221 -2.0738
  358EMC     C1 4611   0.848   3.810   0.547  0.0952 -0.1309  0.2753
  358EMC     C2 4612   1.142   3.997   0.611 -0.0133  0.2320 -0.5470
  358EMC     C3 4613   1.078   3.766   0.577  0.2239 -0.1823 -0.3028
  358EMC     O1 4614   0.963   3.798   0.637 -0.4226 -0.6628 -0.3153
  358EMC     O2 4615   1.104   3.877   0.662  0.0852  0.2100 -0.3574
  358EMC     O3 4616   1.091   3.762   0.456 -0.2458  0.6744  0.1541
  358EMC     H1 4617   0.823   3.906   0.503 -0.5432 -0.5314 -0.2669
  358EMC     H2 4618   0.759   3.783   0.605 -0.4153  0.1992 -0.3354
  358EMC     H3 4619   0.846   3.735   0.467  0.6595 -0.8739  0.9443
  358EMC     C4 4620   1.165   4.102   0.714  0.6263  0.5061 -0.4827
  358EMC     H4 4621   1.066   4.027   0.538 -0.6751 -0.6717 -0.2428
  358EMC     H5 4622   1.231   3.986   0.549 -0.6199  1.6303 -1.7273
  358EMC     H6 4623   1.249   4.057   0.767 -1.2451 -2.4464  0.1782
  358EMC     H7 4624   1.088   4.097   0.791  2.1012  0.3793  1.0596
  358EMC     H8 4625   1.180   4.203   0.676  1.6881  0.5240 -0.0656
  359EMC     C1 4626   4.410   1.324   3.946 -0.9210  0.7791 -0.1572
  359EMC     C2 4627   0.241   1.588   4.026 -0.4159  0.2045 -0.2410
  359EMC     C3 4628   0.020   1.546   3.958 -0.1398  0.4775 -0.5116
  359EMC     O1 4629   0.031   1.405   3.934  0.3668 -0.7837 -0.1265
  359EMC     O2 4630   0.129   1.498   4.026 -0.1071 -0.8973  0.3951
  359EMC     O3 4631   4.417   1.604   4.009 -0.3304  0.3226  0.1151
  359EMC     H1 4632   4.404   1.294   4.050  0.9868 -2.2323 -0.7796
  359EMC     H2 4633   4.397   1.231   3.891 -4.2641 -1.0532  3.2631
  359EMC     H3 4634   4.328   1.385   3.908 -1.4392  1.5676  2.0922
  359EMC     C4 4635   0.374   1.509   4.052  0.5896 -0.0990  0.1558
  359EMC     H4 4636   0.240   1.663   4.106 -1.2192  1.4845 -1.3985
  359EMC     H5 4637   0.240   1.633   3.927 -1.1088  0.7669  0.0106
  359EMC     H6 4638   0.381   1.466   4.152  1.7200  1.7337  0.9280
  359EMC     H7 4639   0.454   1.582   4.044  1.1009 -0.6964 -0.3383
  359EMC     H8 4640   0.395   1.431   3.979  0.9992  0.8692 -0.7922
  360EMC     C1 4641   0.438   3.811   1.009 -0.9415 -0.0461 -0.3387
  360EMC     C2 4642   0.391   3.429   0.868  0.3082  0.0437 -0.3456
  360EMC     C3 4643   0.295   3.613   1.001 -0.5128 -0.1721  0.1604
  360EMC     O1 4644   0.353   3.722   0.934 -0.0100 -0.3036 -0.5312
  360EMC     O2 4645   0.304   3.544   0.887 -0.7385 -0.4236  0.0199
  360EMC     O3 4646   0.354   3.577   1.103  0.1617  0.7343  0.0696
  360EMC     H1 4647   0.528   3.851   0.963  2.4377 -1.1929  4.5113
  360EMC     H2 4648   0.479   3.760   1.096 -0.0373  1.0569 -0.0941
  360EMC     H3 4649   0.383   3.896   1.049 -0.5459  0.1820 -0.2725
  360EMC     C4 4650   0.419   3.432   0.723  0.2083  0.0123  0.3621
  360EMC     H4 4651   0.337   3.345   0.912 -0.8255  0.9143 -0.0422
  360EMC     H5 4652   0.478   3.437   0.933 -0.8187 -0.3148  1.2672
  360EMC     H6 4653   0.321   3.429   0.676 -0.4562  0.9139  1.6422
  360EMC     H7 4654   0.477   3.347   0.686  2.1896  1.7045 -0.6654
  360EMC     H8 4655   0.460   3.527   0.689  1.1257 -1.0771 -1.8181
  361EMC     C1 4656   1.760   1.234   1.388 -0.0505 -0.9621  0.7851
  361EMC     C2 4657   2.047   0.968   1.439 -0.3125  0.4786 -0.0394
  361EMC     C3 4658   1.981   1.193   1.452 -0.9494 -0.1037  0.4797
  361EMC     O1 4659   1.854   1.155   1.450  0.7774  1.0831 -0.5227
  361EMC     O2 4660   2.028   1.086   1.515  0.4301 -0.0738 -0.1559
  361EMC     O3 4661   2.015   1.310   1.481 -0.1272  0.7606  0.4119
  361EMC     H1 4662   1.722   1.317   1.447  1.9892 -0.5144  1.5607
  361EMC     H2 4663   1.689   1.154   1.367  1.0863 -2.6079  2.8529
  361EMC     H3 4664   1.801   1.276   1.295  1.3071 -1.3542  1.1817
  361EMC     C4 4665   2.066   0.839   1.527  0.1376  0.4213 -0.1676
  361EMC     H4 4666   2.121   0.989   1.361 -0.0620 -2.1591 -0.6084
  361EMC     H5 4667   1.952   0.940   1.395 -1.3061  0.7929  1.8058
  361EMC     H6 4668   2.063   0.746   1.470  0.5838  1.1787 -1.4558
  361EMC     H7 4669   2.002   0.836   1.615  0.1469 -2.5089 -0.1633
  361EMC     H8 4670   2.165   0.843   1.571  0.0791 -1.0197  0.1272
  362EMC     C1 4671   4.132   2.606   3.841 -0.1831 -0.1893  0.8737
  362EMC     C2 4672   4.255   2.312   3.558 -0.3839 -0.7263  0.6516
  362EMC     C3 4673   4.100   2.453   3.664 -0.6395  0.0824 -0.3488
  362EMC     O1 4674   4.127   2.581   3.703  0.2652  0.2393  0.0873
  362EMC     O2 4675   4.179   2.435   3.565 -0.1020 -0.7955  0.6523
  362EMC     O3 4676   4.072   2.372   3.750  0.0037  0.4190  0.4039
  362EMC     H1 4677   4.227   2.558   3.863 -0.9070 -0.7545  3.1146
  362EMC     H2 4678   4.056   2.549   3.894 -0.7209 -1.3911 -1.1193
  362EMC     H3 4679   4.131   2.708   3.880  1.7858 -0.8311  2.8487
  362EMC     C4 4680   4.264   2.283   3.413  0.4870 -0.5187  0.0358
  362EMC     H4 4681   4.200   2.234   3.610 -0.6680 -2.2628 -1.7809
  362EMC     H5 4682   4.353   2.338   3.598 -0.3392 -0.8011  0.5898
  362EMC     H6 4683   4.339   2.205   3.400 -0.7690 -1.6067 -1.0759
  362EMC     H7 4684   4.305   2.368   3.360 -3.7931  0.6533 -1.8110
  362EMC     H8 4685   4.164   2.249   3.384 -0.2619 -1.0951  2.9296
  363EMC     C1 4686   0.739   0.841   2.765 -0.1938 -0.5537  0.0931
  363EMC     C2 4687   1.015   0.997   2.557  0.5732  0.0081 -0.7586
  363EMC     C3 4688   0.866   0.811   2.570 -0.1979 -0.0681 -0.0634
  363EMC     O1 4689   0.765   0.872   2.628  0.0131  0.2270 -0.5813
  363EMC     O2 4690   0.879   0.942   2.545 -0.1619 -0.5665  0.3713
  363EMC     O3 4691   0.952   0.748   2.634 -0.9316 -0.3242 -0.1158
  363EMC     H1 4692   0.656   0.897   2.808  1.8090  2.3046  0.5453
  363EMC     H2 4693   0.821   0.864   2.834 -1.7310  1.6054  1.3143
  363EMC     H3 4694   0.717   0.736   2.783 -1.1519 -0.2875  0.5013
  363EMC     C4 4695   1.014   1.144   2.567 -0.8291 -0.3999  0.1064
  363EMC     H4 4696   1.085   0.959   2.483 -0.6972 -4.0277 -0.1320
  363EMC     H5 4697   1.064   0.970   2.651  0.4716 -1.1677 -1.0255
  363EMC     H6 4698   0.975   1.164   2.666  1.2158 -1.7280  1.2513
  363EMC     H7 4699   0.967   1.193   2.481  1.4557  0.3570 -0.7966
  363EMC     H8 4700   1.117   1.178   2.562 -0.7421 -0.6310  0.3351
  364EMC     C1 4701   4.120   1.425   3.748  0.5272  0.1255 -0.0009
  364EMC     C2 4702   3.844   1.156   4.023  0.0576 -0.2429  0.4938
  364EMC     C3 4703   3.956   1.292   3.855 -0.3579  0.3717  0.1150
  364EMC     O1 4704   4.082   1.336   3.847 -0.0731  0.4465 -0.4541
  364EMC     O2 4705   3.945   1.248   3.982  0.4763 -0.5399  0.3450
  364EMC     O3 4706   3.878   1.284   3.760  0.6355  0.3690 -0.3512
  364EMC     H1 4707   4.042   1.430   3.671 -1.4628 -1.1523  1.8174
  364EMC     H2 4708   4.219   1.403   3.709  1.1317 -1.1576  2.0852
  364EMC     H3 4709   4.125   1.522   3.797  2.0692 -0.2574  0.6725
  364EMC     C4 4710   3.829   1.156   4.177  0.1623  0.2708  0.4202
  364EMC     H4 4711   3.882   1.058   3.996  0.4055  0.4798 -1.9382
  364EMC     H5 4712   3.748   1.175   3.973  0.4756  0.5674 -0.0350
  364EMC     H6 4713   3.918   1.131   4.235 -1.1301  2.9601  3.8880
  364EMC     H7 4714   3.742   1.106   4.219  0.0782  0.3257  0.3096
  364EMC     H8 4715   3.811   1.254   4.220  0.4334  0.1473  0.8294
  365EMC     C1 4716   0.414   3.842   3.647  0.3692  0.1733 -0.0053
  365EMC     C2 4717   0.537   4.029   3.259  0.9205  0.1124  0.6345
  365EMC     C3 4718   0.435   3.884   3.412 -0.0490  0.0707 -0.0553
  365EMC     O1 4719   0.381   3.917   3.531  0.0585 -0.3108  0.5450
  365EMC     O2 4720   0.480   4.014   3.391  0.0898  0.7064 -0.4384
  365EMC     O3 4721   0.510   3.786   3.414  0.0206  0.3508 -0.5563
  365EMC     H1 4722   0.365   3.746   3.634 -3.8166  2.2645 -1.7051
  365EMC     H2 4723   0.381   3.878   3.744  0.3415  1.2818 -0.3979
  365EMC     H3 4724   0.522   3.835   3.654  0.4655  2.1948  1.5557
  365EMC     C4 4725   0.574   4.173   3.255  0.0817  0.2004  0.3699
  365EMC     H4 4726   0.473   4.016   3.171  0.4480 -1.1125  1.1290
  365EMC     H5 4727   0.629   3.973   3.243  1.4015  1.1337 -0.3152
  365EMC     H6 4728   0.656   4.210   3.318  0.4569 -0.3441  0.2068
  365EMC     H7 4729   0.491   4.244   3.249 -0.1339  0.0646  1.4717
  365EMC     H8 4730   0.613   4.179   3.154  0.1078 -2.3736  0.1462
  366EMC     C1 4731   2.173   3.487   2.142 -0.4093 -0.3282  0.3480
  366EMC     C2 4732   2.288   3.606   2.510  0.9627  0.1092 -0.5697
  366EMC     C3 4733   2.190   3.674   2.291  0.2162  0.2599 -0.2915
  366EMC     O1 4734   2.256   3.580   2.218 -0.1329  0.0982 -0.0230
  366EMC     O2 4735   2.298   3.658   2.373 -0.5990 -0.2985  0.6508
  366EMC     O3 4736   2.073   3.654   2.328 -0.4469 -0.2951 -0.0135
  366EMC     H1 4737   2.095   3.432   2.195 -0.8926  1.0614  1.1514
  366EMC     H2 4738   2.246   3.427   2.089  2.4745  0.9798  2.5347
  366EMC     H3 4739   2.115   3.557   2.081  1.0473  0.4494 -0.1865
  366EMC     C4 4740   2.415   3.543   2.555 -0.5579  0.7836  0.6893
  366EMC     H4 4741   2.202   3.539   2.505  0.3233  1.0111 -2.7034
  366EMC     H5 4742   2.275   3.698   2.567 -0.7249 -0.0582 -0.6439
  366EMC     H6 4743   2.408   3.493   2.652 -0.1406 -0.2619  0.1992
  366EMC     H7 4744   2.485   3.626   2.562  1.6320 -0.8362 -0.7174
  366EMC     H8 4745   2.438   3.471   2.476 -2.4417 -1.4743  2.0326
  367EMC     C1 4746   2.434   0.451   0.489  0.3013 -0.0204  0.2090
  367EMC     C2 4747   2.521   0.009   0.325 -0.3428 -0.2922  0.1873
  367EMC     C3 4748   2.463   0.217   0.417  0.1508  0.2943 -0.4911
  367EMC     O1 4749   2.514   0.347   0.448  0.3117  0.3730  0.1222
  367EMC     O2 4750   2.556   0.120   0.411 -0.1179  0.0289 -0.0684
  367EMC     O3 4751   2.348   0.193   0.378  0.0770 -0.2431 -0.4484
  367EMC     H1 4752   2.488   0.537   0.528  3.8578 -1.3796 -1.3107
  367EMC     H2 4753   2.357   0.416   0.558 -2.3056 -0.0036 -2.4788
  367EMC     H3 4754   2.371   0.483   0.406  0.4477 -1.2266 -0.3898
  367EMC     C4 4755   2.642   4.415   0.331 -0.4634  0.6403  0.0193
  367EMC     H4 4756   2.526   0.050   0.224 -0.3102 -2.4126 -0.7286
  367EMC     H5 4757   2.427   4.454   0.345 -0.9692  0.2750 -1.1991
  367EMC     H6 4758   2.635   4.339   0.253  0.1236 -0.0820  0.6534
  367EMC     H7 4759   2.647   4.359   0.424 -0.9983  1.1293  0.3452
  367EMC     H8 4760   2.734   4.466   0.301 -0.4958 -0.1356 -1.5337
  368EMC     C1 4761   2.493   2.690   2.147  0.9007  0.8844 -0.0111
  368EMC     C2 4762   2.150   2.789   1.864  0.1102 -0.6540  0.1601
  368EMC     C3 4763   2.359   2.770   1.963 -0.1581  0.9711  0.4899
  368EMC     O1 4764   2.406   2.786   2.087  0.1753  0.5299  0.1766
  368EMC     O2 4765   2.235   2.814   1.966  0.2164 -0.8109 -0.1956
  368EMC     O3 4766   2.396   2.678   1.889 -0.3753  0.0166  0.1129
  368EMC     H1 4767   2.520   2.713   2.250  0.4080  2.1405 -0.1441
  368EMC     H2 4768   2.580   2.689   2.081  0.1099  1.4867 -1.1074
  368EMC     H3 4769   2.448   2.591   2.146  0.3842  1.0981  0.8715
  368EMC     C4 4770   2.027   2.882   1.889 -0.5513 -0.0411  0.2835
  368EMC     H4 4771   2.120   2.684   1.868  0.2342 -0.6572  1.3861
  368EMC     H5 4772   2.198   2.816   1.770 -1.2213 -3.9296 -1.6461
  368EMC     H6 4773   1.998   2.883   1.994  1.1176 -0.1963  0.7830
  368EMC     H7 4774   1.957   2.828   1.826 -0.5013  1.1373 -0.7969
  368EMC     H8 4775   2.046   2.971   1.831 -2.7107  0.0198 -0.4084
  369EMC     C1 4776   1.493   0.594   3.123 -0.6846 -0.2958  0.0395
  369EMC     C2 4777   1.591   0.233   3.151 -1.0634  0.1230  0.7612
  369EMC     C3 4778   1.681   0.459   3.171  0.8281  0.7210 -0.5167
  369EMC     O1 4779   1.590   0.549   3.214  0.6621 -0.6128 -0.2219
  369EMC     O2 4780   1.622   0.350   3.226 -0.4599  0.3022 -0.2855
  369EMC     O3 4781   1.718   0.456   3.053 -0.1239  0.1854  0.3700
  369EMC     H1 4782   1.469   0.508   3.060  2.7243 -0.4737 -1.2805
  369EMC     H2 4783   1.557   0.659   3.062  2.2013 -0.9655  2.1341
  369EMC     H3 4784   1.405   0.636   3.169 -1.0654 -2.0019  0.9442
  369EMC     C4 4785   1.503   0.149   3.239  0.3722  0.6693  0.0349
  369EMC     H4 4786   1.672   0.165   3.124 -0.1649  2.4254 -2.9376
  369EMC     H5 4787   1.549   0.266   3.057  1.2871  2.8072  0.5196
  369EMC     H6 4788   1.560   0.085   3.307 -0.3889  1.1848  1.2107
  369EMC     H7 4789   1.462   0.074   3.171  1.4664 -0.5366  0.6412
  369EMC     H8 4790   1.430   0.201   3.301 -1.6610 -2.2759  0.3540
  370EMC     C1 4791   0.143   1.420   2.370 -0.1257 -0.3254  0.5518
  370EMC     C2 4792   0.211   1.358   1.972 -0.7146  0.6062 -0.9850
  370EMC     C3 4793   0.263   1.492   2.172  0.3148  0.5522  0.4964
  370EMC     O1 4794   0.250   1.408   2.279 -0.2714  0.4151 -0.2081
  370EMC     O2 4795   0.290   1.386   2.094  0.2495  0.5688  0.1452
  370EMC     O3 4796   0.173   1.572   2.152  0.2812 -0.4566 -0.2710
  370EMC     H1 4797   0.044   1.413   2.324  0.1492 -1.0209  0.0674
  370EMC     H2 4798   0.153   1.515   2.424  0.6032  0.5893 -1.1157
  370EMC     H3 4799   0.170   1.350   2.449 -0.2681 -0.9534  0.0406
  370EMC     C4 4800   0.255   1.454   1.859 -0.1807 -0.2355 -0.0083
  370EMC     H4 4801   0.107   1.367   2.001 -0.3344 -3.1456  2.4370
  370EMC     H5 4802   0.215   1.252   1.948  0.3953  0.0787  1.2307
  370EMC     H6 4803   0.194   1.459   1.769  0.3504  0.5530 -0.3448
  370EMC     H7 4804   0.360   1.432   1.840  0.6145  3.0159 -0.0552
  370EMC     H8 4805   0.246   1.558   1.890  1.5481  0.7971 -2.5490
  371EMC     C1 4806   3.707   0.841   2.276  0.4334 -0.3383 -0.2692
  371EMC     C2 4807   3.473   0.594   2.204  0.9324  0.6041 -0.7766
  371EMC     C3 4808   3.693   0.603   2.295  0.1137  0.4942 -0.5636
  371EMC     O1 4809   3.662   0.726   2.348  0.4652 -0.1916 -0.1282
  371EMC     O2 4810   3.560   0.611   2.319  0.0706 -0.4833 -0.1785
  371EMC     O3 4811   3.734   0.582   2.180 -0.2399  0.3277 -0.3715
  371EMC     H1 4812   3.629   0.861   2.203 -1.4180 -1.7201  1.2250
  371EMC     H2 4813   3.799   0.807   2.228  1.6821  1.0024  1.0601
  371EMC     H3 4814   3.727   0.929   2.338 -1.0810 -0.4348  0.3950
  371EMC     C4 4815   3.325   0.607   2.233  0.8167 -0.4337 -0.1058
  371EMC     H4 4816   3.492   0.494   2.164 -0.7481 -0.7591  1.6092
  371EMC     H5 4817   3.496   0.672   2.132 -2.3932  0.9497 -1.6039
  371EMC     H6 4818   3.297   0.709   2.262 -0.0378 -0.6024 -0.3102
  371EMC     H7 4819   3.291   0.541   2.312 -0.6873  2.1792  1.5836
  371EMC     H8 4820   3.281   0.586   2.135  1.8848  3.7619 -1.7039
  372EMC     C1 4821   1.386   0.410   2.676  0.2774 -0.0471  0.1733
  372EMC     C2 4822   1.692   0.489   2.520  0.0575 -0.4730 -0.0251
  372EMC     C3 4823   1.557   0.575   2.700  0.5909  0.5412  0.5365
  372EMC     O1 4824   1.444   0.536   2.643 -0.1130  0.6689 -0.8205
  372EMC     O2 4825   1.582   0.575   2.566 -0.0262  0.7088 -0.3575
  372EMC     O3 4826   1.628   0.506   2.779  0.5352 -0.0646  0.5948
  372EMC     H1 4827   1.462   0.331   2.687  0.9872  0.5937 -0.0287
  372EMC     H2 4828   1.313   0.360   2.613 -1.1631 -2.9098  3.7574
  372EMC     H3 4829   1.328   0.409   2.768 -0.1084  0.6622 -0.0597
  372EMC     C4 4830   1.707   0.525   2.368  0.1574  0.1907 -0.0067
  372EMC     H4 4831   1.648   0.390   2.526 -0.1211 -0.3523  0.9731
  372EMC     H5 4832   1.787   0.500   2.573  0.0589 -0.8634  0.0582
  372EMC     H6 4833   1.734   0.630   2.361 -0.6476  0.4684  0.8308
  372EMC     H7 4834   1.611   0.497   2.326 -0.6169 -0.1056  1.8400
  372EMC     H8 4835   1.777   0.454   2.323  2.2465  1.7304  0.6396
  373EMC     C1 4836   1.466   2.334   0.218  0.8624  0.4937  0.7434
  373EMC     C2 4837   1.359   1.980   0.226 -0.6110 -0.2213 -0.1776
  373EMC     C3 4838   1.387   2.163   0.081 -0.0460 -0.5369 -0.3105
  373EMC     O1 4839   1.356   2.269   0.155 -0.3759 -0.0880  0.0477
  373EMC     O2 4840   1.309   2.090   0.148  0.4033  0.1373  0.0719
  373EMC     O3 4841   1.503   2.137   0.046 -0.1305 -0.4191  0.5764
  373EMC     H1 4842   1.545   2.365   0.150  0.2758  0.0543 -0.1568
  373EMC     H2 4843   1.496   2.275   0.304  0.7078  0.2022  0.5992
  373EMC     H3 4844   1.416   2.421   0.261 -2.3692 -1.4700  1.2608
  373EMC     C4 4845   1.233   1.906   0.268  0.0708  0.1791  0.0736
  373EMC     H4 4846   1.419   2.014   0.311  1.5540  0.8521 -2.0078
  373EMC     H5 4847   1.424   1.923   0.159 -0.0095  0.2238  0.0129
  373EMC     H6 4848   1.186   1.961   0.349 -1.0770 -2.1840  1.1129
  373EMC     H7 4849   1.258   1.807   0.306  3.0590  0.0605 -1.8814
  373EMC     H8 4850   1.156   1.898   0.191  0.3428 -0.6300 -0.1304
  374EMC     C1 4851   4.275   2.211   2.312 -0.2402  0.0014  0.2286
  374EMC     C2 4852   4.307   2.351   1.983  0.7092 -0.1191 -0.2264
  374EMC     C3 4853   4.141   2.335   2.167  0.3695  0.4149 -0.3213
  374EMC     O1 4854   4.233   2.338   2.261  0.2613  0.2605 -0.3378
  374EMC     O2 4855   4.246   2.399   2.104  0.3068 -0.8215 -0.3453
  374EMC     O3 4856   4.079   2.243   2.109 -0.3301 -0.5385  0.2053
  374EMC     H1 4857   4.193   2.168   2.369 -0.7930  0.9999  0.2075
  374EMC     H2 4858   4.345   2.231   2.393 -2.0748 -0.1370  1.9381
  374EMC     H3 4859   4.315   2.144   2.236 -0.9888  1.4377 -1.4997
  374EMC     C4 4860   4.428   2.446   1.968 -0.0499  0.4276 -0.1429
  374EMC     H4 4861   4.229   2.376   1.912 -0.7749 -3.1968  0.1567
  374EMC     H5 4862   4.316   2.243   1.991  0.4706 -0.0344  1.8853
  374EMC     H6 4863   4.389   2.548   1.975 -0.2716  0.3660 -0.4620
  374EMC     H7 4864   4.485   2.449   1.875  0.4103  2.4416  0.1433
  374EMC     H8 4865   0.004   2.437   2.049  0.8334 -1.1217 -1.0622
  375EMC     C1 4866   2.232   3.083   0.820  0.8279 -0.4718  0.4315
  375EMC     C2 4867   2.287   3.227   0.413  0.3593 -0.6570 -0.2626
  375EMC     C3 4868   2.324   3.085   0.599  0.6387  0.8800 -0.3346
  375EMC     O1 4869   2.321   3.142   0.723 -0.6565  0.0685 -0.0824
  375EMC     O2 4870   2.346   3.202   0.538 -0.6939 -0.6869 -0.3964
  375EMC     O3 4871   2.234   3.009   0.558  0.6096  0.1451  0.6023
  375EMC     H1 4872   2.250   2.978   0.841  4.2103 -0.4477 -1.6373
  375EMC     H2 4873   2.132   3.098   0.779  1.2065 -0.1248 -0.4018
  375EMC     H3 4874   2.241   3.139   0.914 -1.2161 -0.0371  0.4158
  375EMC     C4 4875   2.164   3.312   0.450  0.2622  0.0597  0.0923
  375EMC     H4 4876   2.253   3.136   0.364 -0.0775 -1.3193  1.2081
  375EMC     H5 4877   2.359   3.278   0.349 -0.4720  1.1660  0.1631
  375EMC     H6 4878   2.107   3.252   0.521 -1.7240  0.0722 -1.3813
  375EMC     H7 4879   2.101   3.327   0.363 -0.4595 -2.5447  0.0875
  375EMC     H8 4880   2.196   3.403   0.502 -2.4285 -0.0832  2.2441
  376EMC     C1 4881   0.302   3.252   0.006  0.2324  0.2729 -0.8011
  376EMC     C2 4882   0.613   3.408   0.202 -0.2696 -0.2688  0.2196
  376EMC     C3 4883   0.518   3.224   0.093  1.3485  0.0418 -0.0609
  376EMC     O1 4884   0.390   3.222   0.113  0.3122  0.1012 -0.0461
  376EMC     O2 4885   0.513   3.306   0.192 -0.7324 -0.5386  0.1919
  376EMC     O3 4886   0.572   3.254   4.486  0.0580  0.3420 -0.8440
  376EMC     H1 4887   0.311   3.355   4.468 -0.7357  0.5336 -0.3164
  376EMC     H2 4888   0.197   3.237   0.032  0.0477  1.7282 -0.6366
  376EMC     H3 4889   0.320   3.180   4.421  1.2471 -0.2779 -0.1067
  376EMC     C4 4890   0.583   3.505   0.313 -0.4152  0.0258  0.3201
  376EMC     H4 4891   0.605   3.474   0.116 -0.2359 -0.3287  0.1713
  376EMC     H5 4892   0.713   3.371   0.226 -1.0879 -2.2625  0.7353
  376EMC     H6 4893   0.496   3.570   0.303 -0.4386  0.1779  1.3620
  376EMC     H7 4894   0.674   3.563   0.327  0.2100  0.1764 -3.3935
  376EMC     H8 4895   0.561   3.453   0.406  1.7486 -0.9171  0.3659
  377EMC     C1 4896   2.655   0.526   0.192  0.0484  0.3092  0.2266
  377EMC     C2 4897   2.980   0.717   0.292  0.6046 -0.6589  0.6101
  377EMC     C3 4898   2.794   0.722   0.161 -0.0517  0.1321  0.6767
  377EMC     O1 4899   2.761   0.607   0.226  0.0241  0.2674  0.8256
  377EMC     O2 4900   2.909   0.664   0.183  0.5243  0.0769  0.3535
  377EMC     O3 4901   2.753   0.738   0.045  0.6550 -0.3037  0.4041
  377EMC     H1 4902   2.557   0.573   0.203 -1.4759 -2.1433 -1.7935
  377EMC     H2 4903   2.662   0.439   0.257  1.1203 -0.7396 -1.2134
  377EMC     H3 4904   2.668   0.499   0.087 -2.3796  2.6813 -0.8209
  377EMC     C4 4905   3.107   0.627   0.315 -1.1144 -0.2163 -0.8399
  377EMC     H4 4906   2.911   0.734   0.375  0.2539  0.8112  0.0439
  377EMC     H5 4907   3.001   0.822   0.274  0.6499 -0.5448  1.3085
  377EMC     H6 4908   3.173   0.640   0.229  1.1345  2.4251  1.0895
  377EMC     H7 4909   3.084   0.522   0.336  1.0040 -0.6828 -0.6323
  377EMC     H8 4910   3.148   0.668   0.407 -1.4874 -2.2200  0.2746
  378EMC     C1 4911   2.044   2.448   0.633 -0.6697  0.1554  0.2364
  378EMC     C2 4912   2.388   2.327   0.894 -0.2678  0.7410 -0.2160
  378EMC     C3 4913   2.172   2.320   0.791 -0.1103 -1.2201 -0.1436
  378EMC     O1 4914   2.082   2.422   0.771  0.0083  0.1347 -0.0477
  378EMC     O2 4915   2.253   2.371   0.886 -0.4277 -0.5938 -0.0726
  378EMC     O3 4916   2.203   2.237   0.711  0.6230 -0.0593  0.4273
  378EMC     H1 4917   1.968   2.381   0.592 -1.2208  0.0541  1.3685
  378EMC     H2 4918   2.127   2.459   0.564  0.6564  1.2129  1.9538
  378EMC     H3 4919   1.991   2.542   0.619 -0.7358 -0.0547 -1.0269
  378EMC     C4 4920   2.451   2.417   1.002 -0.5391 -0.7478 -0.1478
  378EMC     H4 4921   2.449   2.340   0.804  1.6319 -0.6309  0.7955
  378EMC     H5 4922   2.378   2.220   0.906  1.9443  0.2470 -1.9265
  378EMC     H6 4923   2.553   2.381   1.017  0.0681 -0.3665 -2.8651
  378EMC     H7 4924   2.397   2.411   1.097  1.5576  1.2981  1.2919
  378EMC     H8 4925   2.473   2.520   0.975 -1.9254 -0.4323 -0.1273
  379EMC     C1 4926   1.764   0.785   4.037 -0.0139 -0.7731 -0.2313
  379EMC     C2 4927   1.507   0.782   4.387  0.1494  0.6843  0.2515
  379EMC     C3 4928   1.718   0.812   4.272  0.7956 -0.4441 -0.0875
  379EMC     O1 4929   1.752   0.728   4.162 -0.4986  0.2844  0.6628
  379EMC     O2 4930   1.608   0.737   4.301 -0.7909 -0.6304  0.1382
  379EMC     O3 4931   1.719   0.934   4.267  0.2775  0.4282  0.4206
  379EMC     H1 4932   1.836   0.866   4.038 -0.4987 -0.2794 -1.9093
  379EMC     H2 4933   1.664   0.812   4.000 -0.1538  0.5932  1.0647
  379EMC     H3 4934   1.819   0.713   3.977  0.0139 -1.3334  0.4491
  379EMC     C4 4935   1.450   0.660   4.442 -0.0281 -0.9025 -0.5124
  379EMC     H4 4936   1.433   0.836   4.327  0.0633  1.9665  1.4722
  379EMC     H5 4937   1.545   0.838   4.472  1.1019 -1.4538  1.3122
  379EMC     H6 4938   1.525   0.600   4.493 -1.9836 -3.0827 -0.0252
  379EMC     H7 4939   1.383   0.611   4.371  1.2343 -1.2529 -1.4787
  379EMC     H8 4940   1.383   0.686   0.029  1.6798  0.7547  0.4148
  380EMC     C1 4941   3.543   2.039   4.040 -0.6638  0.3132 -0.0206
  380EMC     C2 4942   3.881   2.146   3.828 -0.0193 -0.2133 -0.1713
  380EMC     C3 4943   3.768   2.080   4.019  0.4630 -0.3984 -0.2351
  380EMC     O1 4944   3.650   2.111   4.076 -0.3853 -0.1317 -0.2495
  380EMC     O2 4945   3.764   2.132   3.904 -0.5182  0.1101 -0.3756
  380EMC     O3 4946   3.872   2.078   4.088  0.1324  0.1814 -0.4159
  380EMC     H1 4947   3.524   1.959   4.112 -1.2789  1.4125  1.0653
  380EMC     H2 4948   3.548   2.015   3.934  0.8787 -0.6242  0.2345
  380EMC     H3 4949   3.460   2.108   4.055 -1.4100 -0.3399 -1.0310
  380EMC     C4 4950   3.858   2.149   3.680  0.2396  0.0643 -0.0986
  380EMC     H4 4951   3.951   2.065   3.852 -1.0089 -0.7870  0.8727
  380EMC     H5 4952   3.934   2.235   3.862 -0.2186 -0.2651  0.2781
  380EMC     H6 4953   3.818   2.058   3.635 -1.0058  1.1049 -1.1945
  380EMC     H7 4954   3.956   2.161   3.635 -1.2917 -0.7089 -4.0641
  380EMC     H8 4955   3.800   2.237   3.649  0.7086  0.2229 -0.5475
  381EMC     C1 4956   3.140   3.118   4.023  0.0785  0.2291 -0.3806
  381EMC     C2 4957   3.533   3.045   4.041  0.4939 -0.5557 -0.2220
  381EMC     C3 4958   3.349   3.114   3.900  0.0363 -0.4396  0.9298
  381EMC     O1 4959   3.268   3.164   4.002 -0.4685 -0.1474 -0.0430
  381EMC     O2 4960   3.429   3.136   4.005 -0.2259 -0.7222  0.2942
  381EMC     O3 4961   3.330   3.009   3.841 -0.0613 -0.3374  0.3398
  381EMC     H1 4962   3.137   3.064   4.118  0.1814  2.9849  1.2791
  381EMC     H2 4963   3.115   3.052   3.940  0.2729  0.6910 -0.8091
  381EMC     H3 4964   3.076   3.206   4.021  0.5726  0.6235  0.5470
  381EMC     C4 4965   3.635   3.103   4.147  0.4054  0.1094  0.0454
  381EMC     H4 4966   3.597   3.023   3.955  1.4314  1.7654 -0.1996
  381EMC     H5 4967   3.486   2.951   4.069 -1.1883 -0.0571 -1.2314
  381EMC     H6 4968   3.701   3.023   4.183 -0.3482  0.6944  2.9635
  381EMC     H7 4969   3.597   3.143   4.241  0.8935 -1.0066  0.7432
  381EMC     H8 4970   3.694   3.183   4.103 -1.3058  0.6552 -1.3689
  382EMC     C1 4971   3.363   3.087   0.203 -0.5218 -0.0418 -0.1846
  382EMC     C2 4972   3.735   3.200   0.247 -0.9073 -0.0494 -0.1529
  382EMC     C3 4973   3.509   3.274   0.234 -0.0505 -0.0462 -0.0345
  382EMC     O1 4974   3.460   3.160   0.281  0.2788  0.3347  0.2944
  382EMC     O2 4975   3.605   3.206   0.298 -0.0387  0.3902  0.1107
  382EMC     O3 4976   3.507   3.303   0.116 -0.4061  0.3574 -0.0381
  382EMC     H1 4977   3.321   3.009   0.268 -0.2427 -0.7294 -0.8187
  382EMC     H2 4978   3.417   3.043   0.119 -0.3175 -0.5109  0.1844
  382EMC     H3 4979   3.283   3.143   0.157  0.9320  0.7536 -1.8622
  382EMC     C4 4980   3.837   3.124   0.334  0.2151 -0.7432 -0.2697
  382EMC     H4 4981   3.767   3.301   0.222  0.6512 -0.1890  1.1055
  382EMC     H5 4982   3.726   3.146   0.153  0.9272  1.7265 -1.4279
  382EMC     H6 4983   3.766   3.049   0.367 -0.5496 -0.7051 -1.7457
  382EMC     H7 4984   3.884   3.174   0.419  1.0314 -1.1003 -0.4963
  382EMC     H8 4985   3.919   3.081   0.276 -0.5056 -0.7279 -1.3261
  383EMC     C1 4986   3.710   4.199   2.514  0.2693 -0.8758  0.5550
  383EMC     C2 4987   3.952   4.006   2.161 -0.4253  0.1525 -0.1226
  383EMC     C3 4988   3.869   4.108   2.358  0.7771  0.2908 -0.6320
  383EMC     O1 4989   3.779   4.202   2.394 -0.2585 -0.3041  0.1079
  383EMC     O2 4990   3.871   4.101   2.225  0.0157  0.4742 -1.3396
  383EMC     O3 4991   3.905   4.020   2.433  0.3833  0.4042 -0.3001
  383EMC     H1 4992   3.780   4.217   2.595 -0.8794  0.4323  1.2967
  383EMC     H2 4993   3.649   4.113   2.540 -3.0857  1.8705  2.5374
  383EMC     H3 4994   3.645   4.286   2.507 -0.3139 -1.4081 -1.0900
  383EMC     C4 4995   3.946   4.068   2.017  0.3715  0.1897 -0.5817
  383EMC     H4 4996   3.894   3.915   2.175 -0.6347  0.4600  1.1361
  383EMC     H5 4997   4.056   3.997   2.193 -0.3566 -0.3071 -0.4693
  383EMC     H6 4998   3.994   4.165   2.019  1.7517 -0.4698 -0.5522
  383EMC     H7 4999   3.845   4.074   1.975 -0.1404 -2.2975  0.1034
  383EMC     H8 5000   3.999   4.005   1.945  2.3551  1.1133  0.0179
  384EMC     C1 5001   1.254   2.053   3.741 -0.1681 -0.9800 -0.5720
  384EMC     C2 5002   1.193   2.388   3.889 -0.0522 -0.4842 -0.4106
  384EMC     C3 5003   1.306   2.288   3.709  0.4034 -0.3941  0.7190
  384EMC     O1 5004   1.333   2.175   3.763 -0.2555 -0.3979 -1.0470
  384EMC     O2 5005   1.309   2.330   3.832  0.1948 -0.3741 -0.4037
  384EMC     O3 5006   1.216   2.308   3.627 -0.3677  0.3886  0.6755
  384EMC     H1 5007   1.283   1.969   3.803 -2.2746 -0.8392  0.6920
  384EMC     H2 5008   1.272   2.035   3.635  0.4060  1.4976 -0.9650
  384EMC     H3 5009   1.146   2.066   3.754  0.0530 -0.4808  1.0105
  384EMC     C4 5010   1.237   2.490   4.000  0.2321  0.2860 -0.8616
  384EMC     H4 5011   1.120   2.309   3.906  0.9537 -1.2957  0.2007
  384EMC     H5 5012   1.150   2.456   3.815  0.2551 -0.8145 -0.8993
  384EMC     H6 5013   1.246   2.428   4.089  0.9015 -0.9859 -1.7783
  384EMC     H7 5014   1.156   2.558   4.025  0.0920  0.1717 -1.0047
  384EMC     H8 5015   1.326   2.545   3.971  0.2687  1.3645  1.1268
  385EMC     C1 5016   1.668   0.303   1.915 -0.1645 -0.3594  0.5596
  385EMC     C2 5017   1.377   0.664   1.833 -0.7726 -0.8557  0.3477
  385EMC     C3 5018   1.516   0.484   1.860 -1.0618 -0.0290  0.1628
  385EMC     O1 5019   1.564   0.394   1.956 -0.3343  0.2236 -0.1206
  385EMC     O2 5020   1.442   0.572   1.916 -0.1086 -0.3965 -0.5314
  385EMC     O3 5021   1.540   0.462   1.741 -0.3627  0.5323  0.2074
  385EMC     H1 5022   1.738   0.297   1.998  1.2323  2.0976 -0.3375
  385EMC     H2 5023   1.725   0.333   1.827 -0.1884  0.9790  0.9728
  385EMC     H3 5024   1.623   0.210   1.881 -2.0484  1.2220 -1.5659
  385EMC     C4 5025   1.298   0.775   1.910  0.1678 -0.3349  0.3740
  385EMC     H4 5026   1.299   0.610   1.779 -2.0235 -1.6428  2.7982
  385EMC     H5 5027   1.453   0.694   1.760  3.2431 -1.0399  4.0245
  385EMC     H6 5028   1.205   0.741   1.953 -0.7263 -1.0086 -1.9320
  385EMC     H7 5029   1.265   0.852   1.840 -0.6184 -0.4422  0.6191
  385EMC     H8 5030   1.363   0.817   1.987 -0.6505  0.0764  0.8461
  386EMC     C1 5031   4.319   3.930   2.009 -0.6383 -0.4952 -0.7713
  386EMC     C2 5032   4.051   3.630   1.859 -0.4177 -0.4464 -0.1678
  386EMC     C3 5033   4.267   3.730   1.903 -0.7418  0.1697  0.0058
  386EMC     O1 5034   4.331   3.787   2.003  0.1386 -0.4223  0.1649
  386EMC     O2 5035   4.129   3.740   1.908 -0.1799 -0.5154 -0.2320
  386EMC     O3 5036   4.329   3.646   1.835 -0.0782  0.2912  0.6384
  386EMC     H1 5037   4.354   3.984   1.920 -3.1322  3.3827  0.3499
  386EMC     H2 5038   4.361   3.973   2.100  2.9189 -1.1832 -1.9418
  386EMC     H3 5039   4.215   3.962   2.012 -0.5148 -0.1032 -0.5496
  386EMC     C4 5040   3.908   3.649   1.902  1.0949  0.2134  0.0695
  386EMC     H4 5041   4.077   3.533   1.901 -0.5737  0.0422  1.0967
  386EMC     H5 5042   4.058   3.611   1.752  0.2036 -1.7576  0.0839
  386EMC     H6 5043   3.845   3.561   1.893  1.6647 -0.4366  1.8735
  386EMC     H7 5044   3.862   3.721   1.834 -2.4098 -0.8750  1.0868
  386EMC     H8 5045   3.914   3.682   2.006  0.3708 -3.1081  1.2738
  387EMC     C1 5046   2.351   2.887   3.888 -0.4246 -0.0865 -1.0700
  387EMC     C2 5047   2.295   2.524   3.634 -0.0475 -0.3960 -0.2731
  387EMC     C3 5048   2.249   2.729   3.741 -0.2239 -0.0458 -0.3456
  387EMC     O1 5049   2.336   2.754   3.842  0.1891  0.2030 -0.0345
  387EMC     O2 5050   2.295   2.603   3.753  0.6180  0.1074  0.2718
  387EMC     O3 5051   2.243   2.801   3.647 -0.6929  0.0863 -0.3484
  387EMC     H1 5052   2.261   2.932   3.930  1.6821  0.5504  3.4069
  387EMC     H2 5053   2.376   2.955   3.806  1.9527  1.3011  0.6675
  387EMC     H3 5054   2.424   2.878   3.969 -1.1958 -1.1197 -0.4738
  387EMC     C4 5055   2.372   2.390   3.644  0.2120 -0.0575  0.0178
  387EMC     H4 5056   2.321   2.555   3.533 -1.9726 -5.5785 -2.7505
  387EMC     H5 5057   2.190   2.499   3.616 -0.3286  0.8087 -0.3450
  387EMC     H6 5058   2.427   2.366   3.736  0.4777 -0.3641 -0.2179
  387EMC     H7 5059   2.443   2.367   3.565  0.4804 -3.4542  1.0691
  387EMC     H8 5060   2.312   2.299   3.642  3.1574 -2.1763  0.9981
  388EMC     C1 5061   1.702   1.640   3.337  0.5980 -0.6973 -0.5282
  388EMC     C2 5062   2.015   1.938   3.521  0.0035  0.2135  0.3915
  388EMC     C3 5063   1.871   1.756   3.464  0.7975 -0.7016 -0.5620
  388EMC     O1 5064   1.743   1.747   3.420 -0.6500  0.0366 -0.8386
  388EMC     O2 5065   1.882   1.887   3.503 -0.4094 -0.0003 -0.1919
  388EMC     O3 5066   1.965   1.682   3.430  0.7904  0.3284  0.2904
  388EMC     H1 5067   1.597   1.665   3.329  0.4815 -0.2027  1.8004
  388EMC     H2 5068   1.729   1.550   3.392  0.6838  0.0371  0.6837
  388EMC     H3 5069   1.752   1.631   3.240 -0.7269  1.2311 -1.4577
  388EMC     C4 5070   2.074   1.988   3.385 -0.7244 -0.9929 -0.1459
  388EMC     H4 5071   2.078   1.866   3.573  0.5525 -0.0984 -0.6702
  388EMC     H5 5072   2.006   2.022   3.590 -2.1678  0.5330 -0.1792
  388EMC     H6 5073   2.099   1.903   3.321  0.8733 -1.2992  0.8212
  388EMC     H7 5074   2.169   2.036   3.410 -0.0423 -2.1778 -0.4053
  388EMC     H8 5075   2.011   2.060   3.334  1.3184 -1.1596 -3.1080
  389EMC     C1 5076   1.253   3.081   3.542  0.4804  0.2277  0.3295
  389EMC     C2 5077   1.553   3.022   3.264 -0.6829  0.0228  0.9124
  389EMC     C3 5078   1.401   3.171   3.390 -0.4872  1.2003 -0.5280
  389EMC     O1 5079   1.284   3.123   3.405 -0.4127 -0.5755 -0.0340
  389EMC     O2 5080   1.422   3.080   3.284 -0.1077 -0.6823 -0.7197
  389EMC     O3 5081   1.477   3.204   3.483 -0.8071  0.6955 -0.3163
  389EMC     H1 5082   1.275   2.975   3.553  1.0743  0.2973 -0.1398
  389EMC     H2 5083   1.147   3.086   3.567 -0.5024 -4.0958 -2.0166
  389EMC     H3 5084   1.304   3.134   3.622  0.7428  0.7557 -0.1737
  389EMC     C4 5085   1.614   3.050   3.121 -0.5697  0.3053 -0.6253
  389EMC     H4 5086   1.554   2.914   3.271  1.7825 -0.0340  0.4698
  389EMC     H5 5087   1.621   3.063   3.339 -0.3568 -0.1204  0.6971
  389EMC     H6 5088   1.620   3.158   3.109  0.7790  0.4428  0.8356
  389EMC     H7 5089   1.557   3.017   3.035 -1.8628  4.1853 -1.4508
  389EMC     H8 5090   1.712   3.002   3.113  0.0427  1.4977 -0.4559
  390EMC     C1 5091   0.364   1.112   3.105  0.6745 -0.1342 -0.0253
  390EMC     C2 5092   0.713   1.218   2.899 -0.4874  0.2361  0.0103
  390EMC     C3 5093   0.488   1.138   2.895 -0.7944  0.5404 -0.5216
  390EMC     O1 5094   0.478   1.152   3.032 -0.4760  0.1147  0.2854
  390EMC     O2 5095   0.616   1.113   2.908  0.1141  0.0902  0.1002
  390EMC     O3 5096   0.421   1.056   2.835  0.1904 -0.2535  1.2780
  390EMC     H1 5097   0.378   1.008   3.136 -0.8201 -0.5073 -0.4861
  390EMC     H2 5098   0.280   1.116   3.035 -0.5317  1.2524  1.4013
  390EMC     H3 5099   0.366   1.187   3.183  2.3329  0.3498 -0.4935
  390EMC     C4 5100   0.853   1.149   2.904 -0.2058 -0.4575  0.0466
  390EMC     H4 5101   0.692   1.296   2.972 -3.1935  0.0582 -0.4771
  390EMC     H5 5102   0.706   1.263   2.801  1.0153  2.4318  0.8445
  390EMC     H6 5103   0.852   1.063   2.838  1.8877  0.4484 -1.2738
  390EMC     H7 5104   0.865   1.086   2.992 -1.1157 -0.6581  0.0422
  390EMC     H8 5105   0.929   1.226   2.888 -1.2481  1.0644  1.9192
  391EMC     C1 5106   2.812   3.327   3.746 -0.1746  0.4046 -0.3933
  391EMC     C2 5107   2.690   3.485   3.397  0.4834 -0.4642  0.2854
  391EMC     C3 5108   2.872   3.413   3.526 -0.1887  0.0294  0.1596
  391EMC     O1 5109   2.781   3.361   3.611 -0.5491  0.1348  0.1972
  391EMC     O2 5110   2.799   3.518   3.485  0.0710 -0.0390  0.7359
  391EMC     O3 5111   2.992   3.423   3.557 -0.4735 -0.0317 -0.0771
  391EMC     H1 5112   2.858   3.410   3.799  1.2234 -1.0136  0.7313
  391EMC     H2 5113   2.872   3.236   3.746 -1.1691 -0.2590 -0.2106
  391EMC     H3 5114   2.719   3.305   3.798 -0.0197  0.0151 -0.2774
  391EMC     C4 5115   2.629   3.624   3.351  0.6027 -0.3012 -0.7903
  391EMC     H4 5116   2.624   3.435   3.468  0.6340  0.5285  1.1615
  391EMC     H5 5117   2.724   3.417   3.320  0.5188 -0.0785 -0.0421
  391EMC     H6 5118   2.614   3.691   3.436  0.5768 -2.4569  0.9843
  391EMC     H7 5119   2.541   3.621   3.287 -0.6691  2.8849  0.6295
  391EMC     H8 5120   2.699   3.672   3.282 -1.5209  2.4347 -1.2118
  392EMC     C1 5121   4.379   4.224   3.242  0.6509  0.2351 -0.1951
  392EMC     C2 5122   4.193   4.441   3.513 -0.5430  0.1336 -0.2095
  392EMC     C3 5123   4.162   4.304   3.327 -0.4278  0.3170 -0.1169
  392EMC     O1 5124   4.271   4.323   3.249  0.4429 -0.0134 -0.2994
  392EMC     O2 5125   4.164   4.424   3.373 -0.0009 -0.5389  0.7077
  392EMC     O3 5126   4.159   4.204   3.401  0.6019 -0.0560  0.5112
  392EMC     H1 5127   4.362   4.159   3.156  1.7946 -0.5720  0.1645
  392EMC     H2 5128   4.377   4.154   3.325 -0.3991  0.9064  0.3637
  392EMC     H3 5129   4.475   4.275   3.236  0.5469  0.7082  1.5649
  392EMC     C4 5130   4.226   0.088   3.554  0.0495 -0.0476 -0.4423
  392EMC     H4 5131   4.297   4.408   3.506 -0.9563 -1.1021 -0.8546
  392EMC     H5 5132   4.136   4.370   3.574 -0.2767 -0.4725 -0.6571
  392EMC     H6 5133   4.136   0.149   3.547 -0.8164 -1.3546 -1.1674
  392EMC     H7 5134   4.307   0.119   3.487 -0.4721  2.5427  0.0340
  392EMC     H8 5135   4.263   0.105   3.655  1.0210 -1.5439 -0.5155
  393EMC     C1 5136   2.094   2.671   0.348 -1.3627 -0.0789 -0.1107
  393EMC     C2 5137   2.306   2.704   0.688  0.4447  0.7468 -0.2014
  393EMC     C3 5138   2.318   2.713   0.440 -0.3611 -0.3307 -0.8519
  393EMC     O1 5139   2.190   2.669   0.454  0.2422 -0.6068  0.7241
  393EMC     O2 5140   2.379   2.716   0.569 -0.1568  0.4561 -0.3326
  393EMC     O3 5141   2.383   2.699   0.336  0.0503  1.0995 -0.2659
  393EMC     H1 5142   2.087   2.583   0.284  1.1954 -0.5053  0.0641
  393EMC     H2 5143   2.137   2.744   0.280 -2.1634  1.4681  1.0010
  393EMC     H3 5144   2.001   2.723   0.369 -0.2102  2.2538 -0.4177
  393EMC     C4 5145   2.390   2.734   0.809  0.7967  0.7295  0.0791
  393EMC     H4 5146   2.284   2.598   0.683  1.1731  0.5849 -0.1046
  393EMC     H5 5147   2.218   2.768   0.700  0.2787  0.2441  1.6522
  393EMC     H6 5148   2.475   2.665   0.805 -0.2422 -0.5311 -1.7167
  393EMC     H7 5149   2.331   2.718   0.899 -0.9385 -0.4156 -1.2091
  393EMC     H8 5150   2.423   2.836   0.788  0.9612  0.6016 -0.2928
  394EMC     C1 5151   2.450   3.260   3.711  0.6340 -0.3938 -0.0571
  394EMC     C2 5152   2.409   3.276   4.117 -0.6376 -0.2313  0.3738
  394EMC     C3 5153   2.386   3.379   3.910 -0.2813  0.0934  0.5373
  394EMC     O1 5154   2.442   3.379   3.788  0.3993  0.2597  0.6424
  394EMC     O2 5155   2.406   3.267   3.978  0.1277 -0.5229  0.2800
  394EMC     O3 5156   2.340   3.480   3.970  0.5444 -0.0474  0.1329
  394EMC     H1 5157   2.360   3.198   3.705  0.0691  0.4534 -5.1893
  394EMC     H2 5158   2.527   3.190   3.742 -1.2232 -3.3012 -1.4932
  394EMC     H3 5159   2.478   3.281   3.607  0.9735 -0.4492  0.0228
  394EMC     C4 5160   2.335   3.157   4.178 -0.8348 -0.7121  0.7929
  394EMC     H4 5161   2.351   3.361   4.154  0.0841 -0.1690  1.4151
  394EMC     H5 5162   2.508   3.293   4.158 -0.5943  0.0441  0.1586
  394EMC     H6 5163   2.373   3.062   4.139  1.2668  0.6249 -0.6555
  394EMC     H7 5164   2.230   3.152   4.151 -0.8554  0.6940  0.5542
  394EMC     H8 5165   2.350   3.161   4.286 -0.0038 -2.0319  0.7652
  395EMC     C1 5166   3.150   2.779   3.923 -0.2531 -0.2709 -0.2678
  395EMC     C2 5167   3.299   2.843   4.288 -0.2045 -0.9217 -0.0484
  395EMC     C3 5168   3.138   2.730   4.154 -0.4782 -0.4716  0.9223
  395EMC     O1 5169   3.112   2.818   4.054 -0.3825 -0.9372 -0.5026
  395EMC     O2 5170   3.196   2.849   4.190 -0.3289  0.4699  0.2112
  395EMC     O3 5171   3.195   2.623   4.150 -0.0284  0.0151 -0.0312
  395EMC     H1 5172   3.258   2.792   3.916 -0.4874  2.6678  0.2557
  395EMC     H2 5173   3.092   2.848   3.861  0.8572  0.1945 -0.8269
  395EMC     H3 5174   3.125   2.676   3.900  0.7818 -0.4645 -0.6108
  395EMC     C4 5175   3.334   2.985   4.329  0.2780 -0.5806 -0.1070
  395EMC     H4 5176   3.393   2.811   4.244  0.6070  0.4412  0.6278
  395EMC     H5 5177   3.293   2.781   4.378 -0.2421 -3.6087 -1.7793
  395EMC     H6 5178   3.408   2.983   4.408  0.2779  2.0858  0.0702
  395EMC     H7 5179   3.250   3.044   4.367  2.9164  3.0826  0.5113
  395EMC     H8 5180   3.376   3.030   4.239  1.1692 -0.6566  0.2595
  396EMC     C1 5181   0.162   2.320   0.007 -0.4406 -0.3579 -0.0548
  396EMC     C2 5182   0.235   2.460   4.141 -0.6385 -0.1817  0.5016
  396EMC     C3 5183   0.084   2.342   4.282  0.0363  0.3014 -0.8537
  396EMC     O1 5184   0.157   2.278   4.374 -0.1327 -0.3048 -0.3548
  396EMC     O2 5185   0.202   2.346   4.221  0.2591  0.0477  0.4335
  396EMC     O3 5186   0.005   2.433   4.301  0.2700  0.2661  0.5200
  396EMC     H1 5187   0.233   2.264   0.068 -0.9129 -1.5806 -0.6050
  396EMC     H2 5188   0.064   2.320   0.055 -1.5405 -1.3402 -2.1896
  396EMC     H3 5189   0.207   2.419   4.493  0.7413 -0.7429  1.0771
  396EMC     C4 5190   0.367   2.435   4.078 -1.3008 -0.0126  0.4079
  396EMC     H4 5191   0.245   2.548   4.205 -4.5375  1.1237 -0.4078
  396EMC     H5 5192   0.150   2.480   4.074 -1.0638 -1.4554  0.6328
  396EMC     H6 5193   0.453   2.395   4.132  1.2438  2.7998 -1.2005
  396EMC     H7 5194   0.410   2.518   4.022  0.0861 -0.9661  0.0018
  396EMC     H8 5195   0.364   2.370   3.991 -1.9523 -1.0362  1.1697
  397EMC     C1 5196   3.687   1.098   0.235  0.0761 -0.1677 -0.5981
  397EMC     C2 5197   3.573   1.555   0.185  0.1151  0.3774  0.1644
  397EMC     C3 5198   3.648   1.336   0.200  0.1642 -0.2343  0.1519
  397EMC     O1 5199   3.604   1.208   0.222 -0.1620 -0.7588  0.5611
  397EMC     O2 5200   3.544   1.415   0.181 -0.0351  0.0848 -0.7473
  397EMC     O3 5201   3.766   1.372   0.185  0.9803  0.0212  0.0885
  397EMC     H1 5202   3.728   1.073   0.138 -0.2108 -2.4903 -0.1762
  397EMC     H2 5203   3.627   1.012   0.265 -1.7589  1.4516  0.5890
  397EMC     H3 5204   3.766   1.115   0.309 -1.4778 -0.6872  1.2826
  397EMC     C4 5205   3.469   1.624   0.269  1.3702 -0.1702 -0.1897
  397EMC     H4 5206   3.568   1.593   0.083 -1.1919 -2.2528 -0.8238
  397EMC     H5 5207   3.674   1.581   0.217  0.0413 -0.0424  0.7733
  397EMC     H6 5208   3.468   1.571   0.364 -0.7548 -0.7157 -0.4540
  397EMC     H7 5209   3.372   1.614   0.219  0.5368 -0.5778  1.4473
  397EMC     H8 5210   3.481   1.729   0.297 -0.2076 -0.2042  0.7568
  398EMC     C1 5211   0.496   1.350   1.542  0.2298 -0.0560 -0.2971
  398EMC     C2 5212   0.658   1.597   1.826  0.2076 -0.4295  0.0234
  398EMC     C3 5213   0.687   1.428   1.669  0.7220 -0.0965 -0.2415
  398EMC     O1 5214   0.553   1.416   1.651 -0.2258 -0.0799  0.4984
  398EMC     O2 5215   0.702   1.553   1.695  0.4915 -0.0820  0.5977
  398EMC     O3 5216   0.769   1.353   1.612 -0.2207 -0.7394 -0.1192
  398EMC     H1 5217   0.504   1.241   1.547 -1.2803 -0.1775 -0.0941
  398EMC     H2 5218   0.534   1.395   1.450  3.4664 -0.3340  0.7555
  398EMC     H3 5219   0.390   1.372   1.539 -0.1285 -1.6076  0.1230
  398EMC     C4 5220   0.653   1.748   1.832 -0.2486 -0.1054 -0.0752
  398EMC     H4 5221   0.736   1.556   1.890  0.7179  1.1983  0.4922
  398EMC     H5 5222   0.564   1.552   1.858  0.4382 -1.1315 -0.2763
  398EMC     H6 5223   0.615   1.775   1.931 -1.2948 -1.0518 -0.2000
  398EMC     H7 5224   0.582   1.786   1.760  0.6172 -0.4592 -1.1367
  398EMC     H8 5225   0.756   1.780   1.816  0.3315 -0.2556  2.7584
  399EMC     C1 5226   4.225   0.407   1.377 -0.3684  0.3687 -0.7240
  399EMC     C2 5227   4.195   0.785   1.616 -0.0569  0.0723 -0.2024
  399EMC     C3 5228   4.133   0.586   1.510  0.2866  0.9175  0.0281
  399EMC     O1 5229   4.164   0.534   1.391  0.4891 -0.3865 -0.0880
  399EMC     O2 5230   4.147   0.715   1.503  0.1096  0.4706  0.5013
  399EMC     O3 5231   4.153   0.523   1.613  0.1177  0.5833  0.6287
  399EMC     H1 5232   4.259   0.364   1.471 -2.9082  1.3381  0.7158
  399EMC     H2 5233   4.308   0.418   1.307 -0.9656 -1.1259 -1.7109
  399EMC     H3 5234   4.159   0.330   1.338  1.9978 -1.7190 -0.8865
  399EMC     C4 5235   4.194   0.930   1.570 -0.2540 -0.9807 -0.1562
  399EMC     H4 5236   4.297   0.761   1.645 -0.5289 -0.5462  1.0243
  399EMC     H5 5237   4.125   0.777   1.699 -2.7722  0.3334 -2.3311
  399EMC     H6 5238   4.094   0.961   1.537  0.0998  0.8553  0.4091
  399EMC     H7 5239   4.263   0.930   1.486 -0.1699 -1.8536 -0.0944
  399EMC     H8 5240   4.233   1.008   1.635  1.5123  0.3187 -2.6094
  400EMC     C1 5241   2.197   3.713   3.023  0.6226  0.4020 -0.3375
  400EMC     C2 5242   1.813   3.780   3.292 -0.4040 -0.9128  1.4869
  400EMC     C3 5243   1.984   3.730   3.131  0.3055 -0.4581  0.8816
  400EMC     O1 5244   2.091   3.788   3.084 -0.2051 -0.3071  0.4084
  400EMC     O2 5245   1.933   3.810   3.221 -0.1467 -0.0867  0.5434
  400EMC     O3 5246   1.961   3.604   3.120  0.2127  0.1408  0.0449
  400EMC     H1 5247   2.165   3.629   2.961 -0.6514 -0.3573  1.2757
  400EMC     H2 5248   2.265   3.675   3.099 -1.0398 -1.1361  0.4704
  400EMC     H3 5249   2.262   3.769   2.957  0.8976  1.0273  0.4444
  400EMC     C4 5250   1.764   3.902   3.360  0.3466  0.1627  0.0571
  400EMC     H4 5251   1.824   3.693   3.357  0.0307 -4.0324 -2.3999
  400EMC     H5 5252   1.741   3.749   3.216  1.5065  0.0841 -0.8675
  400EMC     H6 5253   1.715   3.978   3.298  0.1689 -0.4101 -0.5144
  400EMC     H7 5254   1.849   3.956   3.402  0.4142 -0.1452  0.3153
  400EMC     H8 5255   1.687   3.883   3.436 -0.8846  0.7009 -1.0130
  401EMC     C1 5256   3.759   2.022   0.977 -1.3482  0.4332 -0.4090
  401EMC     C2 5257   3.513   1.796   0.767 -0.6610  0.3379 -0.9889
  401EMC     C3 5258   3.749   1.875   0.789 -0.2997 -0.0121  0.2243
  401EMC     O1 5259   3.719   1.990   0.844  0.8408  0.0351  0.0598
  401EMC     O2 5260   3.618   1.900   0.758 -0.1473  0.2342  0.1107
  401EMC     O3 5261   3.785   1.779   0.855  0.0387 -0.3319  0.2597
  401EMC     H1 5262   3.731   2.123   1.007  4.1951  1.5644  2.2520
  401EMC     H2 5263   3.868   2.014   0.972 -1.4508 -0.4598 -2.9953
  401EMC     H3 5264   3.721   1.951   1.049  1.7664 -0.7150  0.2670
  401EMC     C4 5265   3.422   1.805   0.641 -0.2468 -0.1386 -0.5395
  401EMC     H4 5266   3.452   1.788   0.857 -0.8484 -0.1798 -1.1587
  401EMC     H5 5267   3.561   1.699   0.765  1.2304  1.0607  2.1633
  401EMC     H6 5268   3.340   1.733   0.653 -0.1365 -0.1126  0.4825
  401EMC     H7 5269   3.480   1.774   0.554 -0.6724 -1.8903 -0.2535
  401EMC     H8 5270   3.384   1.905   0.622 -0.3340  0.4237  2.1656
  402EMC     C1 5271   2.992   1.175   2.958 -0.2229 -0.4645  0.4668
  402EMC     C2 5272   3.194   1.431   3.191 -0.0159  0.5524  0.3387
  402EMC     C3 5273   3.201   1.298   2.993  0.5369  0.8365 -0.2101
  402EMC     O1 5274   3.067   1.290   3.000  1.2225  0.2733 -0.4190
  402EMC     O2 5275   3.271   1.350   3.087  0.0125  0.0253 -0.3498
  402EMC     O3 5276   3.259   1.231   2.909  0.3257 -0.0900  0.1610
  402EMC     H1 5277   3.052   1.089   2.987  2.3722  0.7400 -0.9488
  402EMC     H2 5278   2.974   1.163   2.851  0.4465  0.9920  0.1609
  402EMC     H3 5279   2.898   1.187   3.012 -1.9147 -0.5231 -2.2523
  402EMC     C4 5280   3.292   1.500   3.285  0.0252 -0.4858  0.0700
  402EMC     H4 5281   3.143   1.358   3.254  1.5279  0.3231  1.3778
  402EMC     H5 5282   3.109   1.490   3.158 -0.5945 -0.0552  0.7024
  402EMC     H6 5283   3.348   1.573   3.228  0.0200 -1.3360 -1.0613
  402EMC     H7 5284   3.365   1.438   3.338 -1.4020 -2.7162 -0.4104
  402EMC     H8 5285   3.236   1.558   3.358  2.7885 -0.3271  2.2487
  403EMC     C1 5286   0.752   1.293   0.271 -0.5889  0.4265 -0.0354
  403EMC     C2 5287   0.955   0.957   0.186 -0.5745  0.4966 -0.3455
  403EMC     C3 5288   0.780   1.062   0.309  0.4919  0.1410  0.1820
  403EMC     O1 5289   0.827   1.173   0.246  0.6689 -0.3671 -0.8619
  403EMC     O2 5290   0.824   1.005   0.190 -0.1583 -0.0768  0.7143
  403EMC     O3 5291   0.662   1.053   0.336  0.0417  0.1500  0.3031
  403EMC     H1 5292   0.795   1.361   0.196  0.4856  0.2225  0.3740
  403EMC     H2 5293   0.778   1.324   0.372  1.7889  0.7747 -0.6846
  403EMC     H3 5294   0.646   1.282   0.251 -0.8507  3.1305 -0.4615
  403EMC     C4 5295   0.985   0.898   0.047  0.0040  0.1709  0.2165
  403EMC     H4 5296   0.975   0.883   0.264  0.7017 -1.0401 -2.0122
  403EMC     H5 5297   1.020   1.043   0.200  0.7011 -0.3330 -0.9455
  403EMC     H6 5298   0.918   0.813   0.043 -0.5233  0.6390 -1.6427
  403EMC     H7 5299   1.089   0.864   0.041  1.4461  3.6581  2.0820
  403EMC     H8 5300   0.979   0.976   4.468  0.7826 -0.8921 -0.9999
  404EMC     C1 5301   1.665   2.135   3.414 -0.1016 -0.0942 -0.4263
  404EMC     C2 5302   1.414   1.877   3.341  0.1312  0.0008  0.1442
  404EMC     C3 5303   1.437   2.104   3.402  0.3576  0.2189 -0.4739
  404EMC     O1 5304   1.547   2.083   3.470 -0.0205 -0.0214  0.2239
  404EMC     O2 5305   1.365   2.005   3.363 -0.1645  0.0338  0.0831
  404EMC     O3 5306   1.396   2.222   3.394  0.1137  0.4230  0.1729
  404EMC     H1 5307   1.641   2.231   3.368 -3.8195 -0.9072 -0.4873
  404EMC     H2 5308   1.692   2.068   3.332  1.2697 -1.1563  0.8423
  404EMC     H3 5309   1.741   2.132   3.492 -0.0531 -0.4081 -0.4855
  404EMC     C4 5310   1.293   1.782   3.304 -0.5505  0.5835 -0.3734
  404EMC     H4 5311   1.465   1.844   3.432 -1.5323  1.0857  1.5232
  404EMC     H5 5312   1.483   1.869   3.257 -2.0209  0.0851 -1.7377
  404EMC     H6 5313   1.314   1.676   3.292  2.6286  0.8739  1.4785
  404EMC     H7 5314   1.233   1.828   3.227  1.7475  1.2075 -1.8997
  404EMC     H8 5315   1.231   1.762   3.391  0.8273 -0.8225  0.3493
  405EMC     C1 5316   2.812   0.904   3.154 -0.5041  0.8547 -0.6926
  405EMC     C2 5317   3.008   0.935   3.519 -0.6687  0.9310  1.0149
  405EMC     C3 5318   2.931   1.034   3.313  0.3919  0.5042  0.2038
  405EMC     O1 5319   2.820   0.973   3.283 -0.3525  0.1883  0.5660
  405EMC     O2 5320   2.895   0.980   3.435 -1.1888  0.5500 -0.0876
  405EMC     O3 5321   3.041   1.030   3.257 -0.2263  0.0322  0.1407
  405EMC     H1 5322   2.902   0.846   3.135  0.2022  1.0550  1.7894
  405EMC     H2 5323   2.812   0.981   3.076  1.1063  0.7931 -0.7739
  405EMC     H3 5324   2.722   0.842   3.150 -0.6521  1.1068 -1.5867
  405EMC     C4 5325   3.064   0.795   3.509  0.3147 -0.4783  0.2761
  405EMC     H4 5326   2.978   0.944   3.623 -1.3025  0.3934  0.8905
  405EMC     H5 5327   3.083   1.013   3.508  0.4834 -0.3780 -0.9908
  405EMC     H6 5328   2.996   0.719   3.547 -1.1917 -0.3867 -2.0330
  405EMC     H7 5329   3.156   0.786   3.567  0.2057 -0.2749  0.4806
  405EMC     H8 5330   3.094   0.761   3.410 -0.6380  0.0968 -0.2201
  406EMC     C1 5331   0.291   2.746   2.201 -0.3704 -0.7881  0.2697
  406EMC     C2 5332   4.410   2.705   2.286  0.3497 -0.3755  0.7555
  406EMC     C3 5333   0.117   2.810   2.349 -0.0986 -0.3058 -0.3321
  406EMC     O1 5334   0.175   2.823   2.229 -0.5871 -0.4919  0.3509
  406EMC     O2 5335   0.015   2.801   2.265  0.0351  0.5380  0.0682
  406EMC     O3 5336   0.144   2.711   2.427 -0.2112 -0.0803 -0.3741
  406EMC     H1 5337   0.352   2.801   2.129 -0.8781  1.4461  1.4311
  406EMC     H2 5338   0.266   2.651   2.155  0.2571 -0.9215  0.1992
  406EMC     H3 5339   0.343   2.730   2.295  0.9796 -1.5704 -0.5838
  406EMC     C4 5340   4.282   2.740   2.213  0.0182 -0.1933 -0.3539
  406EMC     H4 5341   4.390   2.699   2.393  0.5555 -0.0743  0.8121
  406EMC     H5 5342   4.446   2.607   2.251 -1.5124 -0.7298 -0.2844
  406EMC     H6 5343   4.200   2.680   2.250  0.2795 -1.2324 -1.3913
  406EMC     H7 5344   4.289   2.727   2.105 -0.2475 -0.1903 -0.3715
  406EMC     H8 5345   4.256   2.844   2.235  3.4012  0.8580 -0.6204
  407EMC     C1 5346   4.351   1.281   1.574 -0.3429  0.3205 -0.1202
  407EMC     C2 5347   4.331   1.590   1.845 -0.7063 -1.0466  0.1727
  407EMC     C3 5348   4.406   1.501   1.629 -1.0011  0.1973 -0.7423
  407EMC     O1 5349   4.318   1.416   1.575  0.1609 -0.4123 -0.0595
  407EMC     O2 5350   4.354   1.478   1.755  0.3604  0.1932  0.4629
  407EMC     O3 5351   4.404   1.616   1.589 -0.2464  0.0089 -0.8063
  407EMC     H1 5352   4.437   1.269   1.508 -0.1276  0.8911  0.0528
  407EMC     H2 5353   4.265   1.219   1.549  0.7735 -0.7439 -1.5575
  407EMC     H3 5354   4.386   1.230   1.664 -0.3538 -0.2856 -0.4554
  407EMC     C4 5355   4.256   1.545   1.965 -0.2978 -0.3897 -1.0579
  407EMC     H4 5356   4.264   1.662   1.800  0.3999 -0.4318 -0.5344
  407EMC     H5 5357   4.428   1.632   1.871 -0.9950  1.1039 -1.8886
  407EMC     H6 5358   4.156   1.507   1.946 -1.4252  1.4489  0.7565
  407EMC     H7 5359   4.240   1.624   2.039  0.2482 -0.9901 -0.2856
  407EMC     H8 5360   4.324   1.471   2.005  1.7996  2.1217  0.3805
  408EMC     C1 5361   3.834   0.356   0.498 -0.6180 -0.9523 -0.4631
  408EMC     C2 5362   3.581   0.609   0.787  0.0885 -0.2494 -0.3898
  408EMC     C3 5363   3.651   0.457   0.615  0.4148  0.0845 -0.0087
  408EMC     O1 5364   3.777   0.468   0.562 -0.5343 -0.5228 -0.2703
  408EMC     O2 5365   3.662   0.584   0.671  0.8067 -0.2118 -0.1160
  408EMC     O3 5366   3.592   0.363   0.668 -0.3229  0.1179 -0.8988
  408EMC     H1 5367   3.784   0.263   0.473 -1.0044 -0.7141 -0.5864
  408EMC     H2 5368   3.913   0.325   0.567 -0.1305 -0.0140 -0.5830
  408EMC     H3 5369   3.876   0.402   0.408 -2.1289  2.4426  0.4251
  408EMC     C4 5370   3.615   0.755   0.842 -0.1519  0.1431  0.0899
  408EMC     H4 5371   3.585   0.524   0.854 -3.3493  0.7430  1.3146
  408EMC     H5 5372   3.477   0.601   0.755  0.0691 -1.7975 -0.0033
  408EMC     H6 5373   3.621   0.821   0.755  0.0723 -1.7768 -1.4126
  408EMC     H7 5374   3.717   0.771   0.876 -0.4556  3.6299 -0.1986
  408EMC     H8 5375   3.537   0.798   0.905  1.7937  2.4009  1.1190
  409EMC     C1 5376   3.147   3.784   1.315  0.0545  0.1243 -0.0394
  409EMC     C2 5377   3.038   3.622   1.695 -0.0663  0.2594  0.1070
  409EMC     C3 5378   3.144   3.798   1.549  0.0532  0.2642 -0.1505
  409EMC     O1 5379   3.070   3.803   1.439  0.4750  0.3976 -0.3596
  409EMC     O2 5380   3.107   3.665   1.572 -0.4488  0.3366 -0.0658
  409EMC     O3 5381   3.134   3.885   1.636 -0.1664  0.0379  0.6346
  409EMC     H1 5382   3.201   3.690   1.324  1.8225  1.2302  2.0537
  409EMC     H2 5383   3.219   3.866   1.305  0.5639 -0.5485 -2.7490
  409EMC     H3 5384   3.090   3.793   1.223  2.9290  1.9488 -1.8391
  409EMC     C4 5385   3.013   3.475   1.684  0.2677 -0.0451 -0.5233
  409EMC     H4 5386   2.939   3.666   1.691 -0.6113 -0.7712  1.6241
  409EMC     H5 5387   3.091   3.654   1.785 -0.3382  0.3928  0.2189
  409EMC     H6 5388   2.952   3.440   1.767 -0.3867  1.1467 -0.4749
  409EMC     H7 5389   3.105   3.418   1.695  0.8526  0.9461 -0.1346
  409EMC     H8 5390   2.965   3.452   1.589 -0.1480  2.1716 -0.8986
  410EMC     C1 5391   2.806   3.908   3.049  0.5324 -0.7924 -0.5520
  410EMC     C2 5392   2.779   4.095   3.434  0.4700 -0.1647  0.4432
  410EMC     C3 5393   2.759   4.098   3.193 -0.4873  0.3852 -0.5370
  410EMC     O1 5394   2.743   3.972   3.162  0.0227 -0.3137 -0.5108
  410EMC     O2 5395   2.723   4.041   3.313 -0.3701 -0.4525 -0.6772
  410EMC     O3 5396   2.859   4.156   3.165 -0.5711  0.2294 -0.8468
  410EMC     H1 5397   2.780   3.969   2.963 -1.0928 -0.4524  0.1356
  410EMC     H2 5398   2.784   3.802   3.040  2.1590 -1.1362 -0.8232
  410EMC     H3 5399   2.913   3.924   3.058  0.4081  1.2092 -1.8441
  410EMC     C4 5400   2.685   4.042   3.548 -0.1572 -0.7203  0.7533
  410EMC     H4 5401   2.767   4.202   3.419  4.1288  0.5279  1.5154
  410EMC     H5 5402   2.883   4.064   3.443  0.9180  1.1766  0.1072
  410EMC     H6 5403   2.711   4.093   3.640  0.0376  2.3820 -0.8879
  410EMC     H7 5404   2.677   3.934   3.562  0.4451 -0.9762 -0.6822
  410EMC     H8 5405   2.585   4.082   3.529  0.8956  0.1542 -4.5008
  411EMC     C1 5406   1.464   1.426   3.640  0.6659  0.0295 -0.7106
  411EMC     C2 5407   1.301   1.572   3.938 -0.2263  0.2015  0.1310
  411EMC     C3 5408   1.248   1.509   3.700  0.0314  0.2372  0.1688
  411EMC     O1 5409   1.372   1.532   3.659  0.4517 -0.0846 -0.0781
  411EMC     O2 5410   1.294   1.598   3.796  0.6219 -0.2175  0.0869
  411EMC     O3 5411   1.208   1.389   3.723 -0.9124 -0.3945 -0.6126
  411EMC     H1 5412   1.556   1.466   3.598 -0.1928  1.7633 -1.0027
  411EMC     H2 5413   1.420   1.357   3.567 -1.3485  0.9567 -0.4220
  411EMC     H3 5414   1.493   1.372   3.730 -0.9060 -1.2596 -0.9271
  411EMC     C4 5415   1.315   1.707   4.004  0.1402 -0.0918  0.0292
  411EMC     H4 5416   1.380   1.500   3.959 -0.3239  0.6977  2.3931
  411EMC     H5 5417   1.211   1.517   3.965 -0.1814  0.2929  0.4651
  411EMC     H6 5418   1.223   1.763   3.988 -0.5644 -0.1164  3.2001
  411EMC     H7 5419   1.403   1.758   3.966  0.4107 -0.7094 -0.1921
  411EMC     H8 5420   1.327   1.686   4.111 -1.2236 -0.4320  0.1361
  412EMC     C1 5421   2.388   0.226   1.360 -0.0273 -0.2008  0.3651
  412EMC     C2 5422   2.282   0.154   0.940  0.1499  0.0016  0.0201
  412EMC     C3 5423   2.420   0.225   1.117  1.0556  0.7502  0.3228
  412EMC     O1 5424   2.365   0.280   1.231 -0.3839 -0.0994 -0.0064
  412EMC     O2 5425   2.293   0.221   1.060  0.1429 -0.6098 -0.6262
  412EMC     O3 5426   2.502   0.134   1.108 -0.4005  0.1123  0.3945
  412EMC     H1 5427   2.359   0.121   1.358 -0.4013 -0.1620 -3.6275
  412EMC     H2 5428   2.325   0.278   1.431  0.1529 -1.6033  1.6073
  412EMC     H3 5429   2.490   0.233   1.399 -0.3528  1.7337  0.9572
  412EMC     C4 5430   2.130   0.140   0.901 -1.4977 -0.3473  0.3238
  412EMC     H4 5431   2.339   0.061   0.936 -0.9824 -0.6901 -0.8857
  412EMC     H5 5432   2.343   0.210   0.869  1.5790  2.6525  3.0889
  412EMC     H6 5433   2.118   0.072   0.817  0.8665  1.4699 -1.6038
  412EMC     H7 5434   2.083   0.236   0.878  0.8065  0.5936 -0.7367
  412EMC     H8 5435   2.076   0.083   0.977 -0.4303 -1.8667 -0.0164
  413EMC     C1 5436   3.543   2.199   2.498 -0.0552 -0.3533  0.3412
  413EMC     C2 5437   3.342   1.966   2.226  0.7906  0.0951 -0.9222
  413EMC     C3 5438   3.413   2.009   2.451  0.1341  1.2282  0.7704
  413EMC     O1 5439   3.420   2.140   2.488 -0.0500  0.3045  0.3322
  413EMC     O2 5440   3.382   2.057   2.333 -0.1063  0.1243 -0.1807
  413EMC     O3 5441   3.506   1.932   2.468 -0.3896  0.0193  0.3889
  413EMC     H1 5442   3.576   2.196   2.602 -2.3445 -0.4549  1.1133
  413EMC     H2 5443   3.529   2.304   2.474  1.0901 -0.4782 -0.9980
  413EMC     H3 5444   3.619   2.164   2.428  0.2727  0.3937  0.3167
  413EMC     C4 5445   3.270   2.035   2.106  0.0135 -0.8245 -0.1575
  413EMC     H4 5446   3.282   1.889   2.274  2.5957  0.2931  1.8217
  413EMC     H5 5447   3.435   1.922   2.190  1.5386  1.4671 -0.7301
  413EMC     H6 5448   3.264   1.966   2.022  1.7830 -0.3420 -0.7220
  413EMC     H7 5449   3.325   2.127   2.086 -2.8935  0.8540 -1.0390
  413EMC     H8 5450   3.170   2.062   2.140  0.4333 -0.9206  1.1974
  414EMC     C1 5451   4.493   1.105   2.955  0.0913 -0.4414 -0.2615
  414EMC     C2 5452   4.461   1.060   2.575  0.6370  0.3845 -0.9140
  414EMC     C3 5453   0.031   0.937   2.774 -0.2872  0.2820 -0.0212
  414EMC     O1 5454   4.447   0.999   2.873  0.7959 -0.0663  0.2133
  414EMC     O2 5455   4.438   0.974   2.686 -0.2717 -0.0640  0.5129
  414EMC     O3 5456   0.152   0.963   2.770  0.8138  0.2018  0.6542
  414EMC     H1 5457   0.053   1.069   3.042  0.9998  0.4384 -0.4652
  414EMC     H2 5458   4.408   1.155   3.001  0.1371  0.0166 -0.6689
  414EMC     H3 5459   0.054   1.174   2.893  2.5994 -2.2098 -0.0674
  414EMC     C4 5460   4.341   1.084   2.472  0.3567  0.3412 -0.2189
  414EMC     H4 5461   0.042   1.002   2.525  0.3724  0.8071 -1.8222
  414EMC     H5 5462   4.493   1.158   2.610 -5.0205  1.9628  1.0450
  414EMC     H6 5463   4.362   1.155   2.392 -0.2480  0.8796  0.0935
  414EMC     H7 5464   4.258   1.133   2.522 -0.2784 -0.9205  0.0092
  414EMC     H8 5465   4.298   0.993   2.431 -1.7754  0.4345  1.6686
  415EMC     C1 5466   2.495   1.556   3.798  0.0446 -0.1181  0.1103
  415EMC     C2 5467   2.233   1.474   4.096 -0.2126  0.1631 -0.7736
  415EMC     C3 5468   2.310   1.445   3.884 -0.2631  0.3292 -0.2545
  415EMC     O1 5469   2.425   1.496   3.909 -0.2144 -0.5573  0.6602
  415EMC     O2 5470   2.299   1.395   4.001 -0.8169  0.1816  0.2138
  415EMC     O3 5471   2.284   1.378   3.783  0.3557 -0.3546  0.0429
  415EMC     H1 5472   2.440   1.642   3.759 -0.2286 -1.2175 -2.1346
  415EMC     H2 5473   2.524   1.486   3.719 -0.3523  1.3616 -1.4100
  415EMC     H3 5474   2.588   1.600   3.834  0.1164 -0.3957  0.2722
  415EMC     C4 5475   2.231   1.393   4.234  0.0542 -0.0294  0.7916
  415EMC     H4 5476   2.128   1.479   4.065 -0.7310  0.4469  0.9137
  415EMC     H5 5477   2.276   1.573   4.107  0.2950 -0.2280  1.2324
  415EMC     H6 5478   2.331   1.394   4.277 -0.3752 -3.4086  2.1527
  415EMC     H7 5479   2.201   1.291   4.210  0.6776  0.0230 -0.2533
  415EMC     H8 5480   2.155   1.436   4.300 -1.8581 -2.5682  0.4069
  416EMC     C1 5481   3.559   2.822   0.321 -0.1878 -0.0181  0.5496
  416EMC     C2 5482   3.287   2.513   0.112  0.3574  0.1335  0.2639
  416EMC     C3 5483   3.422   2.681   0.189  0.0166 -0.7330  0.1674
  416EMC     O1 5484   3.434   2.748   0.300 -0.3337 -0.0946 -0.7757
  416EMC     O2 5485   3.315   2.611   0.213 -0.3600  0.4303  0.4258
  416EMC     O3 5486   3.511   2.671   0.100 -0.4623  0.4014 -0.6213
  416EMC     H1 5487   3.645   2.755   0.311 -0.2728  0.1823 -2.7704
  416EMC     H2 5488   3.570   2.873   0.416  0.6782 -0.2077  0.5674
  416EMC     H3 5489   3.578   2.904   0.252  2.6515  3.9744  5.3741
  416EMC     C4 5490   3.167   2.433   0.156  0.7324  0.0389  0.2382
  416EMC     H4 5491   3.374   2.448   0.105  1.7236  2.0223 -4.9959
  416EMC     H5 5492   3.266   2.561   0.016 -2.0802  0.6275  0.9657
  416EMC     H6 5493   3.146   2.347   0.092  0.1195  0.2553  0.1367
  416EMC     H7 5494   3.078   2.495   0.166 -0.5758 -1.8969  1.2178
  416EMC     H8 5495   3.192   2.387   0.251 -0.8593  0.4432  0.8889
  417EMC     C1 5496   3.626   2.013   1.459  0.3069  0.2163  0.7314
  417EMC     C2 5497   3.421   2.380   1.353  0.5629  0.4334  0.0230
  417EMC     C3 5498   3.601   2.252   1.447  1.0609 -0.2967  0.7295
  417EMC     O1 5499   3.622   2.135   1.388  0.1224 -0.3132  0.2888
  417EMC     O2 5500   3.544   2.318   1.342  0.0015 -0.2072  0.1849
  417EMC     O3 5501   3.577   2.284   1.565 -0.4837 -0.0872  0.1277
  417EMC     H1 5502   3.564   2.020   1.548 -0.9948  1.1465 -0.2092
  417EMC     H2 5503   3.731   1.989   1.476 -0.0008 -1.0920  0.8903
  417EMC     H3 5504   3.589   1.926   1.405  0.0186  0.4471  0.5564
  417EMC     C4 5505   3.406   2.481   1.243 -0.1059 -0.1296  0.1241
  417EMC     H4 5506   3.406   2.431   1.448  0.0330 -1.7159  1.1649
  417EMC     H5 5507   3.344   2.304   1.339  1.2411  0.1533 -2.8594
  417EMC     H6 5508   3.425   2.430   1.148 -1.2373 -1.3539  0.5245
  417EMC     H7 5509   3.485   2.555   1.244  0.2871 -0.5490  0.2444
  417EMC     H8 5510   3.308   2.529   1.246  0.2185  0.5451  0.1884
  418EMC     C1 5511   4.469   2.421   1.587 -0.4648  0.4592 -0.5284
  418EMC     C2 5512   4.369   2.354   1.214 -0.0873  0.2218  0.0067
  418EMC     C3 5513   0.019   2.296   1.391  0.3685 -0.0849  0.3969
  418EMC     O1 5514   4.441   2.313   1.505  0.8927  0.1158 -0.4056
  418EMC     O2 5515   4.399   2.277   1.329  0.3786 -0.4100 -0.4595
  418EMC     O3 5516   0.103   2.369   1.340  0.6313 -0.5222 -0.4270
  418EMC     H1 5517   4.442   2.517   1.542  2.2900  1.1486 -0.8857
  418EMC     H2 5518   0.078   2.437   1.614 -1.0565  2.2927  0.8953
  418EMC     H3 5519   4.411   2.421   1.680  0.7358  2.3607  0.2925
  418EMC     C4 5520   4.305   2.483   1.263 -0.1437  0.8856  0.0565
  418EMC     H4 5521   4.292   2.311   1.150  0.1139  1.1144 -0.8559
  418EMC     H5 5522   4.456   2.391   1.159  1.1087  0.0664  1.7229
  418EMC     H6 5523   4.376   2.563   1.288  0.0135  0.9043 -0.4450
  418EMC     H7 5524   4.230   2.469   1.341 -1.7369  0.8519 -1.4508
  418EMC     H8 5525   4.247   2.522   1.180 -1.0528 -0.2980  0.1154
  419EMC     C1 5526   0.589   0.961   2.326 -0.5143 -0.0099 -0.1431
  419EMC     C2 5527   0.522   1.308   2.554 -0.2146  0.5550  0.1495
  419EMC     C3 5528   0.573   1.082   2.523 -0.2031 -0.2938 -0.1947
  419EMC     O1 5529   0.649   1.055   2.412  0.3118 -0.0836  0.0733
  419EMC     O2 5530   0.611   1.207   2.510  0.3024 -0.3721 -0.3381
  419EMC     O3 5531   0.455   1.051   2.552  0.2063 -0.2493 -0.1034
  419EMC     H1 5532   0.652   0.899   2.263  0.7534 -0.1178  1.1762
  419EMC     H2 5533   0.536   1.028   2.258 -3.4788 -2.3892 -0.3936
  419EMC     H3 5534   0.526   0.889   2.379  0.9700 -1.7554 -0.6624
  419EMC     C4 5535   0.581   1.446   2.525  0.8583  0.0539 -0.2264
  419EMC     H4 5536   0.494   1.299   2.659  1.0599 -0.1524  0.4440
  419EMC     H5 5537   0.432   1.285   2.497  0.5602  0.5578 -1.1215
  419EMC     H6 5538   0.584   1.465   2.417  1.4106  1.2137 -0.0267
  419EMC     H7 5539   0.687   1.446   2.553  0.8862 -2.0127 -0.2328
  419EMC     H8 5540   0.537   1.519   2.592 -0.5776 -1.3153  0.3723
  420EMC     C1 5541   3.462   0.165   1.815 -0.3100 -0.1306 -0.5321
  420EMC     C2 5542   3.149   0.440   1.833 -0.3530 -0.0667 -0.2019
  420EMC     C3 5543   3.310   0.294   1.939  0.4050 -0.5260  0.2349
  420EMC     O1 5544   3.329   0.181   1.869 -0.7922 -0.2302  0.6234
  420EMC     O2 5545   3.193   0.304   1.872  0.4925  0.0809 -0.0081
  420EMC     O3 5546   3.389   0.387   1.946 -0.0236 -0.3275  0.2519
  420EMC     H1 5547   3.471   0.078   1.751  0.8058  1.1280 -2.1657
  420EMC     H2 5548   3.536   0.162   1.896 -2.7322  0.4625  1.8388
  420EMC     H3 5549   3.475   0.259   1.761  3.9618  0.5655  1.2246
  420EMC     C4 5550   3.003   0.442   1.787 -0.2128  0.1728 -0.0149
  420EMC     H4 5551   3.203   0.484   1.749 -1.1991 -0.4057 -0.9467
  420EMC     H5 5552   3.150   0.509   1.917 -1.3730  1.3805 -1.3332
  420EMC     H6 5553   2.941   0.370   1.840  0.5884  0.5491  1.4733
  420EMC     H7 5554   2.998   0.411   1.682 -0.2408 -1.0515  0.3246
  420EMC     H8 5555   2.956   0.540   1.796  1.5668  1.1546 -0.9122
  421EMC     C1 5556   0.097   2.056   0.568 -0.0141  0.1098 -0.6467
  421EMC     C2 5557   4.393   1.695   0.458 -0.1711 -0.8891  0.0278
  421EMC     C3 5558   0.076   1.850   0.470 -0.6396  0.9501 -0.5595
  421EMC     O1 5559   0.025   1.967   0.493  0.7747 -0.4763  1.0395
  421EMC     O2 5560   4.465   1.804   0.408  0.0296  0.3029  0.0419
  421EMC     O3 5561   0.154   1.784   0.544  0.5658  0.1836 -0.4268
  421EMC     H1 5562   0.047   2.152   0.584 -0.0630  0.0225 -0.2621
  421EMC     H2 5563   0.201   2.066   0.537 -0.3460 -0.2041 -1.9377
  421EMC     H3 5564   0.106   2.020   0.670  1.6023  6.0562  1.7077
  421EMC     C4 5565   4.258   1.676   0.396 -0.1864 -0.6640 -0.6147
  421EMC     H4 5566   4.387   1.701   0.566  1.0441 -2.1834  0.2005
  421EMC     H5 5567   4.449   1.602   0.445 -0.2823 -1.2952  2.1089
  421EMC     H6 5568   4.206   1.593   0.443  0.9490 -1.0759 -0.0479
  421EMC     H7 5569   4.269   1.643   0.293 -0.4909 -1.3592 -0.4319
  421EMC     H8 5570   4.191   1.762   0.397 -2.3430 -2.2593  0.4986
  422EMC     C1 5571   0.870   0.102   2.060 -0.0158 -0.7621 -0.2675
  422EMC     C2 5572   1.162   4.432   2.212 -0.2814 -0.3596 -0.8342
  422EMC     C3 5573   1.062   4.470   1.999  1.1525  0.4149  1.0597
  422EMC     O1 5574   0.933   4.480   2.011 -0.0144 -0.8879 -0.3175
  422EMC     O2 5575   1.059   4.414   2.120  0.5413  0.0645 -0.3510
  422EMC     O3 5576   1.136   0.057   1.957 -0.0797 -0.9295 -0.2017
  422EMC     H1 5577   0.901   0.196   2.013 -0.5073 -1.3663 -1.8381
  422EMC     H2 5578   0.892   0.107   2.167 -0.2804 -0.0397 -0.2404
  422EMC     H3 5579   0.763   0.086   2.057 -0.1893  0.4937 -1.6526
  422EMC     C4 5580   1.157   4.342   2.343  0.9266  0.2678  0.2467
  422EMC     H4 5581   1.153   0.041   2.239 -2.3958 -0.4935 -0.8570
  422EMC     H5 5582   1.255   4.404   2.161 -0.5033  1.2084 -2.2095
  422EMC     H6 5583   1.081   4.364   2.418 -0.0556  0.8969 -0.9104
  422EMC     H7 5584   1.248   4.335   2.403 -0.1735  2.8335  2.4407
  422EMC     H8 5585   1.150   4.236   2.318  0.8847  0.6760 -1.6006
  423EMC     C1 5586   0.014   0.844   0.213 -0.4330 -0.4164 -0.2396
  423EMC     C2 5587   0.398   0.796   0.115 -0.0881  0.5792  0.0707
  423EMC     C3 5588   0.208   0.942   0.113 -0.1208  0.0145  0.2436
  423EMC     O1 5589   0.144   0.900   0.223 -0.1718  0.7788 -0.0173
  423EMC     O2 5590   0.301   0.883   0.177 -0.0610  0.1150 -0.2454
  423EMC     O3 5591   0.168   0.918   0.003  0.4484 -0.1589 -0.6370
  423EMC     H1 5592   0.031   0.740   0.188 -1.2413 -1.1699  2.1038
  423EMC     H2 5593   4.457   0.898   0.134  2.9772  1.2686 -1.5724
  423EMC     H3 5594   4.449   0.852   0.303  1.7435 -1.3797  1.4233
  423EMC     C4 5595   0.510   0.750   0.198 -0.5217 -0.3039  0.4649
  423EMC     H4 5596   0.435   0.849   0.027 -1.9517 -0.3486 -1.3432
  423EMC     H5 5597   0.347   0.704   0.085 -2.1453  1.1789  1.5354
  423EMC     H6 5598   0.557   0.835   0.247  0.7652  0.3615 -1.7827
  423EMC     H7 5599   0.590   0.701   0.142 -1.9475  0.6081 -2.5881
  423EMC     H8 5600   0.483   0.691   0.285 -0.3864  1.6224  1.8690
  424EMC     C1 5601   0.881   1.771   1.108  0.2121  0.7338  0.3685
  424EMC     C2 5602   0.590   1.724   1.396  0.2596 -0.5225 -0.2403
  424EMC     C3 5603   0.807   1.646   1.301 -0.2853  0.3707 -0.4057
  424EMC     O1 5604   0.860   1.645   1.175  0.0257  0.3323 -0.1020
  424EMC     O2 5605   0.708   1.741   1.316 -0.5967  0.4375 -0.3014
  424EMC     O3 5606   0.816   1.555   1.387 -0.1882  0.2016  0.0250
  424EMC     H1 5607   0.797   1.821   1.059  1.8336  1.2823 -2.0575
  424EMC     H2 5608   0.952   1.754   1.028 -1.1126  1.6485 -1.0670
  424EMC     H3 5609   0.936   1.833   1.178 -1.1928  1.1782  1.1306
  424EMC     C4 5610   0.498   1.851   1.383  0.2828  0.5747 -0.2007
  424EMC     H4 5611   0.629   1.726   1.498 -0.2886  1.1321 -0.0321
  424EMC     H5 5612   0.544   1.631   1.362 -1.2563 -0.8632  2.4739
  424EMC     H6 5613   0.516   1.890   1.283  0.0646  0.9669 -0.0904
  424EMC     H7 5614   0.526   1.930   1.452  0.0797  0.1016  0.4349
  424EMC     H8 5615   0.394   1.821   1.397  0.8323 -0.5438  1.8654
  425EMC     C1 5616   4.207   1.036   0.430 -0.4206 -0.4293  0.1330
  425EMC     C2 5617   4.115   0.826   0.080  0.6718 -0.2406  0.6410
  425EMC     C3 5618   4.092   0.853   0.318 -0.0599  0.8952  0.1886
  425EMC     O1 5619   4.203   0.913   0.358 -0.0399  0.7428 -0.0152
  425EMC     O2 5620   4.172   0.840   0.207  1.2357 -0.0594 -0.2061
  425EMC     O3 5621   3.979   0.904   0.313 -0.4593  0.3517 -0.4593
  425EMC     H1 5622   4.313   1.052   0.448  0.6519 -2.5478 -3.3977
  425EMC     H2 5623   4.139   1.038   0.515 -0.4640  0.4087  0.0809
  425EMC     H3 5624   4.164   1.111   0.364 -0.5134 -0.4783  0.1378
  425EMC     C4 5625   4.226   0.823   4.473 -0.0303 -0.2191  0.1609
  425EMC     H4 5626   4.042   0.906   0.065  0.4285  0.2154  3.5982
  425EMC     H5 5627   4.058   0.735   0.065  0.1774  0.2352 -0.4586
  425EMC     H6 5628   4.240   0.924   4.435 -1.4019  0.2505  0.8264
  425EMC     H7 5629   4.215   0.758   4.386 -0.6836 -0.7699  0.6475
  425EMC     H8 5630   4.316   0.786   0.024 -1.5453 -0.2369  3.3007
  426EMC     C1 5631   0.980   2.789   3.437  0.0901  0.6382  0.1954
  426EMC     C2 5632   0.688   3.118   3.640 -0.2006  0.6044 -0.0440
  426EMC     C3 5633   0.849   2.944   3.568 -0.1719  0.0186  0.0948
  426EMC     O1 5634   0.933   2.922   3.462  0.4282  0.3899 -0.2572
  426EMC     O2 5635   0.809   3.069   3.569 -1.0818  0.4091  0.1891
  426EMC     O3 5636   0.780   2.854   3.620 -0.0879 -0.2415  0.4821
  426EMC     H1 5637   1.027   2.797   3.339 -0.7950  1.9157 -0.1472
  426EMC     H2 5638   0.894   2.722   3.437  0.1117  0.3378  4.2710
  426EMC     H3 5639   1.055   2.758   3.511  0.4719  1.1557  0.0346
  426EMC     C4 5640   0.568   3.114   3.546 -0.5675  0.9493  0.6129
  426EMC     H4 5641   0.711   3.222   3.663 -2.1340  0.9250  0.5621
  426EMC     H5 5642   0.666   3.081   3.740  0.1788 -2.1483 -0.8962
  426EMC     H6 5643   0.607   3.143   3.449  2.2531 -2.0919  0.6441
  426EMC     H7 5644   0.497   3.189   3.581 -0.5766  0.9337  0.6281
  426EMC     H8 5645   0.510   3.022   3.538  0.8746  0.1643 -1.5521
  427EMC     C1 5646   2.415   0.054   2.056 -0.1736 -0.2573  0.7269
  427EMC     C2 5647   2.196   0.310   2.257  0.1525 -0.5349 -0.5006
  427EMC     C3 5648   2.383   0.280   2.111 -0.1557 -0.3038  0.4343
  427EMC     O1 5649   2.360   0.180   2.027  0.5992  0.2379  0.3655
  427EMC     O2 5650   2.249   0.283   2.127 -0.5165 -0.3168  0.2228
  427EMC     O3 5651   2.465   0.272   2.201 -0.2452 -0.5211  0.0412
  427EMC     H1 5652   2.501   0.060   2.123  0.6846  0.1124 -0.3753
  427EMC     H2 5653   2.452   0.019   1.960  0.4749  1.6628  0.2323
  427EMC     H3 5654   2.334   4.485   2.092 -1.0154 -0.2195 -1.0096
  427EMC     C4 5655   2.052   0.352   2.225  0.0002 -0.3838  0.2022
  427EMC     H4 5656   2.248   0.393   2.305  0.2887 -1.1124  0.3620
  427EMC     H5 5657   2.199   0.217   2.314 -2.3036  0.2387  1.0784
  427EMC     H6 5658   1.993   0.390   2.309  2.1128  1.2861  1.0319
  427EMC     H7 5659   2.003   0.277   2.163  1.3391  0.5381 -2.1246
  427EMC     H8 5660   2.040   0.431   2.150  2.4753  1.2201  1.3599
  428EMC     C1 5661   2.287   1.066   3.876  0.3538  0.5800  0.6642
  428EMC     C2 5662   2.220   0.913   3.518 -0.6759  0.1415 -0.7996
  428EMC     C3 5663   2.121   1.023   3.703  0.2691  0.6006  0.4524
  428EMC     O1 5664   2.189   0.988   3.808  0.0784 -0.2373  0.2629
  428EMC     O2 5665   2.176   0.911   3.654  0.5877  0.2493 -0.7362
  428EMC     O3 5666   2.130   1.137   3.654 -0.0110 -0.8159 -0.2331
  428EMC     H1 5667   2.251   1.137   3.949  0.1475  0.2884  0.8504
  428EMC     H2 5668   2.338   1.125   3.800 -1.2745  2.2550  0.7989
  428EMC     H3 5669   2.363   1.010   3.930 -0.5874 -1.7994 -0.3209
  428EMC     C4 5670   2.296   0.786   3.465  0.1311 -0.1285 -0.4061
  428EMC     H4 5671   2.282   1.002   3.510 -0.9949  0.4201 -0.2393
  428EMC     H5 5672   2.135   0.929   3.452 -0.2587 -0.8623 -1.6180
  428EMC     H6 5673   2.378   0.752   3.528 -1.1053 -0.6496  0.9849
  428EMC     H7 5674   2.337   0.807   3.366 -0.1566  1.5153 -0.2029
  428EMC     H8 5675   2.227   0.702   3.467  0.1525 -0.1397 -0.0528
  429EMC     C1 5676   2.455   2.200   3.329  0.0606 -0.0788  0.9605
  429EMC     C2 5677   2.475   1.982   2.975  0.4924  0.0941  0.0017
  429EMC     C3 5678   2.570   2.092   3.156  0.4927  0.4848 -0.3111
  429EMC     O1 5679   2.500   2.077   3.271  0.3283 -0.3367 -0.2199
  429EMC     O2 5680   2.502   1.994   3.108  0.0844  0.7786 -0.1131
  429EMC     O3 5681   2.592   2.197   3.094  0.3224 -0.9555 -0.7327
  429EMC     H1 5682   2.443   2.188   3.437  1.5823 -2.0285  0.9744
  429EMC     H2 5683   2.361   2.236   3.286 -0.5044 -2.7390 -0.2407
  429EMC     H3 5684   2.527   2.276   3.298  0.9427 -1.7238 -1.3286
  429EMC     C4 5685   2.380   1.862   2.963  0.4185 -0.6068  0.2283
  429EMC     H4 5686   2.570   1.975   2.923  0.8242  0.9785  0.4644
  429EMC     H5 5687   2.424   2.074   2.946  0.2076 -0.2337 -0.5619
  429EMC     H6 5688   2.434   1.779   3.008  2.8870  1.0505  0.5367
  429EMC     H7 5689   2.337   1.842   2.865  0.4219 -0.8427  0.2745
  429EMC     H8 5690   2.296   1.905   3.019  1.1366  2.3650 -0.8065
  430EMC     C1 5691   2.608   3.310   1.831  0.1093 -0.7788 -0.0622
  430EMC     C2 5692   2.537   3.477   2.188  0.6121  0.2640 -0.2105
  430EMC     C3 5693   2.538   3.269   2.059 -0.3901  0.1204  0.5801
  430EMC     O1 5694   2.630   3.315   1.968  0.3597 -0.3883 -0.3543
  430EMC     O2 5695   2.602   3.351   2.141 -0.7009 -0.2042 -0.9518
  430EMC     O3 5696   2.417   3.267   2.033  0.3993 -0.0412 -0.3867
  430EMC     H1 5697   2.691   3.359   1.780  0.9409  0.3250  2.2242
  430EMC     H2 5698   2.515   3.362   1.809  1.0536  0.6733 -0.7753
  430EMC     H3 5699   2.600   3.205   1.801  1.3290 -0.7096 -0.6805
  430EMC     C4 5700   2.637   3.563   2.253 -0.1308 -0.6040 -0.2788
  430EMC     H4 5701   2.457   3.445   2.255  0.4854 -0.4503 -0.6883
  430EMC     H5 5702   2.483   3.532   2.110  1.7032  2.6834  0.6629
  430EMC     H6 5703   2.700   3.494   2.310  1.1817 -0.0937 -1.0625
  430EMC     H7 5704   2.605   3.642   2.321  0.2260 -1.1097  0.4911
  430EMC     H8 5705   2.708   3.608   2.183  0.2240 -1.0666 -0.2245
  431EMC     C1 5706   0.633   0.004   4.121 -0.8733  0.8050 -0.5620
  431EMC     C2 5707   0.650   4.205   3.856  0.2362 -0.7885 -0.1729
  431EMC     C3 5708   0.513   4.342   3.993  0.3063  0.5503 -0.5420
  431EMC     O1 5709   0.538   4.466   4.032 -0.3554 -0.4020 -0.4540
  431EMC     O2 5710   0.582   4.325   3.880 -0.3738 -0.1225 -0.1906
  431EMC     O3 5711   0.505   4.248   4.073  0.3589 -0.0140 -0.0269
  431EMC     H1 5712   0.598   0.041   4.217  0.0784 -0.8762  0.4731
  431EMC     H2 5713   0.664   0.096   4.071  0.9484 -0.4105 -1.7987
  431EMC     H3 5714   0.717   4.431   4.127 -0.2764  1.6144  1.1014
  431EMC     C4 5715   0.706   4.209   3.710  0.0875 -0.3465  0.2736
  431EMC     H4 5716   0.565   4.137   3.865 -0.1718 -0.1428  1.0447
  431EMC     H5 5717   0.723   4.194   3.937  0.8655  3.6166  0.1170
  431EMC     H6 5718   0.639   4.236   3.629 -0.1646 -2.0260 -0.0990
  431EMC     H7 5719   0.755   4.114   3.693 -1.5059 -0.9282 -1.2823
  431EMC     H8 5720   0.791   4.277   3.723 -0.9947  0.8891  1.2720
  432EMC     C1 5721   2.233   3.234   1.744 -0.4187  0.0968  0.0431
  432EMC     C2 5722   2.042   3.390   1.431 -0.1021  0.8740  0.1464
  432EMC     C3 5723   2.042   3.228   1.604 -0.4425 -0.6647 -0.2987
  432EMC     O1 5724   2.118   3.295   1.688  0.0942  0.3094 -0.1066
  432EMC     O2 5725   2.022   3.358   1.570  0.4246 -0.0473  0.4784
  432EMC     O3 5726   2.095   3.144   1.528  0.1311  0.2987 -0.0311
  432EMC     H1 5727   2.212   3.141   1.797 -0.8195  0.5520  0.6984
  432EMC     H2 5728   2.288   3.300   1.812 -0.7723  0.5551 -0.1060
  432EMC     H3 5729   2.310   3.225   1.668 -0.1860  0.3558  0.2451
  432EMC     C4 5730   1.998   3.539   1.403  0.4311 -0.1640  0.9653
  432EMC     H4 5731   1.973   3.323   1.379  1.3562 -0.7171  0.1856
  432EMC     H5 5732   2.149   3.373   1.418 -0.1901 -0.5296  0.9621
  432EMC     H6 5733   1.895   3.541   1.438  0.2486 -0.8013  0.4941
  432EMC     H7 5734   1.994   3.564   1.297  0.9051  2.8681  1.5686
  432EMC     H8 5735   2.057   3.612   1.458  1.1750 -0.2562  0.3222
  433EMC     C1 5736   0.869   2.434   2.283  0.2173 -0.6063  0.2645
  433EMC     C2 5737   0.763   2.157   1.972 -0.0569  0.6779 -0.0942
  433EMC     C3 5738   0.879   2.237   2.164 -0.4413 -0.5985  0.9481
  433EMC     O1 5739   0.801   2.317   2.236  0.3768 -0.0912  0.7407
  433EMC     O2 5740   0.763   2.192   2.112  0.3703 -0.6670  0.3665
  433EMC     O3 5741   0.987   2.273   2.106  0.0000  0.5252 -0.2669
  433EMC     H1 5742   0.883   2.499   2.196 -0.4742 -0.9320 -0.0994
  433EMC     H2 5743   0.960   2.412   2.339  1.0204  0.1714 -0.6990
  433EMC     H3 5744   0.804   2.482   2.356 -1.3679 -0.0167 -1.4600
  433EMC     C4 5745   0.650   2.058   1.944 -0.4509 -0.5452 -0.3419
  433EMC     H4 5746   0.863   2.120   1.952 -0.3849 -0.1438 -0.2607
  433EMC     H5 5747   0.747   2.245   1.911  2.3529  2.5813  1.8202
  433EMC     H6 5748   0.557   2.113   1.959  1.0452  1.4887  2.3410
  433EMC     H7 5749   0.649   1.967   2.003 -1.6973 -0.3150  0.0361
  433EMC     H8 5750   0.647   2.033   1.838 -0.9819 -0.0944 -0.4426
  434EMC     C1 5751   0.578   2.702   1.329  0.2553  0.4239  0.4272
  434EMC     C2 5752   0.613   2.258   1.187  0.2819  0.1209  0.4424
  434EMC     C3 5753   0.573   2.481   1.238  0.2898  0.1935  0.1115
  434EMC     O1 5754   0.638   2.575   1.298 -0.6827  0.4185  0.3127
  434EMC     O2 5755   0.659   2.381   1.230 -0.3336  0.5090 -0.5016
  434EMC     O3 5756   0.452   2.474   1.224 -0.4713  0.9805 -0.5833
  434EMC     H1 5757   0.517   2.744   1.249  0.3298  1.5706  0.9610
  434EMC     H2 5758   0.648   2.782   1.353 -1.6250  2.1250  0.5410
  434EMC     H3 5759   0.516   2.689   1.417  2.0102 -0.2226  1.6189
  434EMC     C4 5760   0.706   2.136   1.204 -0.5080  0.0602 -0.3339
  434EMC     H4 5761   0.573   2.256   1.086  0.7368 -0.9173  0.2790
  434EMC     H5 5762   0.523   2.232   1.242  0.1582 -2.4681 -0.8418
  434EMC     H6 5763   0.736   2.124   1.308 -0.1360  2.2848 -0.1294
  434EMC     H7 5764   0.799   2.137   1.147 -1.5530  2.9227 -2.2045
  434EMC     H8 5765   0.656   2.048   1.163 -0.3948  0.1305 -0.6262
  435EMC     C1 5766   4.233   3.629   1.030  0.3316 -0.8749  0.1648
  435EMC     C2 5767   4.129   3.329   0.782  0.1076 -0.7070 -0.3685
  435EMC     C3 5768   4.125   3.561   0.816 -0.0274  0.0822 -0.7082
  435EMC     O1 5769   4.205   3.535   0.930  0.1741  0.2703  0.0328
  435EMC     O2 5770   4.108   3.456   0.743 -0.3005  0.4665 -0.1459
  435EMC     O3 5771   4.066   3.666   0.796  0.3888 -0.4889 -0.4434
  435EMC     H1 5772   4.260   3.723   0.981 -0.3849  0.3150  1.9348
  435EMC     H2 5773   4.305   3.590   1.102 -1.3638 -0.7443  2.0071
  435EMC     H3 5774   4.145   3.650   1.092  0.3827 -0.2145  0.0275
  435EMC     C4 5775   4.122   3.248   0.659 -0.1053  0.1941 -0.2777
  435EMC     H4 5776   4.053   3.299   0.855  1.4473  0.5866  1.6938
  435EMC     H5 5777   4.223   3.323   0.836  0.8254  0.9360 -1.3742
  435EMC     H6 5778   4.139   3.142   0.682 -0.6200  0.4620  1.4997
  435EMC     H7 5779   4.184   3.295   0.584  1.2417 -1.1718 -0.0786
  435EMC     H8 5780   4.028   3.270   0.610  1.1481  3.3195 -1.5452
  436EMC     C1 5781   1.101   3.880   4.203  0.1435  0.1963 -0.5892
  436EMC     C2 5782   1.082   4.056   0.113  0.3301  0.0438 -0.1899
  436EMC     C3 5783   1.101   4.064   4.368 -0.1697 -0.2281 -0.1498
  436EMC     O1 5784   1.031   3.963   4.306 -0.3476 -0.3168  0.2238
  436EMC     O2 5785   1.043   4.007   4.478 -0.1614 -0.0702 -0.0794
  436EMC     O3 5786   1.228   4.080   4.365  0.5011 -0.2718  1.0297
  436EMC     H1 5787   1.150   3.931   4.121 -0.2409 -0.5779 -1.3079
  436EMC     H2 5788   1.030   3.816   4.151  0.4257 -1.0306  0.4857
  436EMC     H3 5789   1.172   3.824   4.265 -0.5723 -1.3474 -1.1285
  436EMC     C4 5790   1.044   3.939   0.207  0.0056  0.5469 -0.3285
  436EMC     H4 5791   1.014   4.139   0.131 -0.3302 -0.3675 -0.7247
  436EMC     H5 5792   1.184   4.091   0.127  0.0274  0.7085  0.3865
  436EMC     H6 5793   1.058   3.967   0.311 -0.7225  0.7751 -0.2891
  436EMC     H7 5794   1.105   3.850   0.189 -0.2652  0.1456  0.7159
  436EMC     H8 5795   0.942   3.903   0.193 -0.5124  1.4618  0.9329
  437EMC     C1 5796   2.230   2.794   4.264  0.2925  0.2147  0.0234
  437EMC     C2 5797   2.648   2.865   4.268 -0.0706 -0.7086 -0.0741
  437EMC     C3 5798   2.460   2.713   4.305  0.1790  0.2863 -0.2149
  437EMC     O1 5799   2.369   2.777   4.229 -0.1276  0.0562  0.0120
  437EMC     O2 5800   2.515   2.813   4.238 -0.6325  0.4324 -0.4223
  437EMC     O3 5801   2.458   2.710   4.432  0.1303  0.1635  0.3003
  437EMC     H1 5802   2.172   2.705   4.238  1.3723 -0.8030  0.9702
  437EMC     H2 5803   2.182   2.883   4.223  0.1669  0.0450 -0.2076
  437EMC     H3 5804   2.218   2.807   4.371 -1.8062  3.2285 -0.4717
  437EMC     C4 5805   2.709   2.909   4.138  0.3419 -0.0953  0.7277
  437EMC     H4 5806   2.709   2.783   4.305  0.5344 -0.1873  0.1134
  437EMC     H5 5807   2.640   2.934   4.352 -0.9956  0.5295 -1.1350
  437EMC     H6 5808   2.730   2.824   4.074 -0.4999  0.2922 -0.0808
  437EMC     H7 5809   2.804   2.962   4.150 -0.7240  1.9030  0.8449
  437EMC     H8 5810   2.642   2.980   4.090 -2.2528 -1.8679  1.4818
  438EMC     C1 5811   1.414   0.637   4.002 -0.3280 -0.2290 -0.2877
  438EMC     C2 5812   1.184   0.328   4.127  0.1517 -0.1189 -0.6266
  438EMC     C3 5813   1.204   0.562   4.076  1.0126  0.1488  0.9771
  438EMC     O1 5814   1.311   0.626   4.098 -0.1062 -0.5772 -0.1170
  438EMC     O2 5815   1.201   0.464   4.166  0.6423 -0.0939 -0.2522
  438EMC     O3 5816   1.152   0.553   3.965 -0.2376 -0.3597  0.4488
  438EMC     H1 5817   1.413   0.555   3.931 -1.1286  1.0431 -1.8023
  438EMC     H2 5818   1.513   0.634   4.048  0.4780 -0.7176 -1.9776
  438EMC     H3 5819   1.409   0.725   3.938 -0.8934 -1.0122 -1.3537
  438EMC     C4 5820   1.210   0.243   4.247  0.3850  0.5458 -0.4255
  438EMC     H4 5821   1.249   0.291   4.048 -2.2152 -0.9917 -2.2821
  438EMC     H5 5822   1.084   0.306   4.090 -0.1960  1.6626 -0.8618
  438EMC     H6 5823   1.188   0.139   4.223 -0.2242  0.7262 -0.6636
  438EMC     H7 5824   1.143   0.267   4.329 -0.5810 -0.9376 -0.7344
  438EMC     H8 5825   1.311   0.257   4.287  0.5951  1.8219 -1.3477
  439EMC     C1 5826   2.255   2.534   2.680  0.0566  0.3328 -0.7558
  439EMC     C2 5827   2.164   2.217   2.909 -0.7697  0.0604  0.1125
  439EMC     C3 5828   2.126   2.332   2.708  0.4362  0.6155 -0.4300
  439EMC     O1 5829   2.241   2.396   2.719 -0.1283  0.0753 -0.4205
  439EMC     O2 5830   2.083   2.296   2.830 -0.2479  0.0133 -0.5876
  439EMC     O3 5831   2.045   2.367   2.617 -0.1832 -0.5083  0.1742
  439EMC     H1 5832   2.162   2.582   2.649  0.9836  1.4657 -1.8769
  439EMC     H2 5833   2.340   2.553   2.615 -1.4857  3.0371 -2.1521
  439EMC     H3 5834   2.280   2.598   2.765  0.4948 -1.2058  0.3118
  439EMC     C4 5835   2.256   2.313   3.005 -0.2945  0.3441 -0.4426
  439EMC     H4 5836   2.229   2.159   2.844  1.4204  4.1519 -1.7729
  439EMC     H5 5837   2.109   2.139   2.961 -0.8562 -0.8113 -1.2483
  439EMC     H6 5838   2.192   2.352   3.084  1.5842  2.5967  0.0780
  439EMC     H7 5839   2.298   2.400   2.955 -1.8876  0.5883 -1.4133
  439EMC     H8 5840   2.335   2.254   3.051 -0.1916  2.2083  1.9192
  440EMC     C1 5841   2.467   3.191   1.406  0.2772 -0.5897  0.9494
  440EMC     C2 5842   2.251   3.448   1.139  0.1193  0.2186  0.6602
  440EMC     C3 5843   2.349   3.221   1.203 -0.3701  0.2764 -0.1513
  440EMC     O1 5844   2.462   3.235   1.269 -0.1681  0.4580 -0.3130
  440EMC     O2 5845   2.362   3.353   1.158  0.1814 -1.2947  0.7327
  440EMC     O3 5846   2.242   3.176   1.245  0.0381  0.0899 -0.1319
  440EMC     H1 5847   2.388   3.242   1.460 -0.0622  1.0463 -1.0085
  440EMC     H2 5848   2.566   3.215   1.445 -0.1061  0.2109  1.4642
  440EMC     H3 5849   2.449   3.083   1.408 -1.9542 -0.2465  1.0318
  440EMC     C4 5850   2.297   3.582   1.188  0.2361  0.2526  0.0885
  440EMC     H4 5851   2.161   3.408   1.185 -0.4463 -0.3292 -0.8803
  440EMC     H5 5852   2.242   3.437   1.031 -0.1352 -0.9214  0.7867
  440EMC     H6 5853   2.389   3.620   1.143  3.1721 -0.1613  5.0432
  440EMC     H7 5854   2.323   3.571   1.293  1.0531  0.4224 -0.0901
  440EMC     H8 5855   2.219   3.658   1.174  1.2936  1.1640 -1.0274
  441EMC     C1 5856   3.964   2.944   3.733  0.6315 -0.1865  0.2197
  441EMC     C2 5857   4.203   3.167   3.471  0.3721  0.6653  0.6510
  441EMC     C3 5858   4.073   2.962   3.512 -0.7758  0.5290 -0.4960
  441EMC     O1 5859   4.088   2.950   3.651  0.4257  0.7711 -0.4141
  441EMC     O2 5860   4.186   3.032   3.517 -0.4664 -0.0859  0.1482
  441EMC     O3 5861   3.963   3.002   3.464 -0.2561 -0.1167  0.5287
  441EMC     H1 5862   3.875   2.964   3.674  0.0555 -2.1450  0.3328
  441EMC     H2 5863   3.979   3.018   3.812  1.5423 -1.3640  1.2032
  441EMC     H3 5864   3.942   2.844   3.771 -0.6473 -0.5197 -1.2984
  441EMC     C4 5865   4.327   3.222   3.544 -0.3063 -0.0566  0.5990
  441EMC     H4 5866   4.125   3.239   3.493  0.9285  1.4772  0.0523
  441EMC     H5 5867   4.222   3.162   3.363  1.2195 -0.7702  0.8368
  441EMC     H6 5868   4.313   3.246   3.650  1.4315  2.0279  0.4333
  441EMC     H7 5869   4.344   3.318   3.495  3.3697 -0.1235  1.4569
  441EMC     H8 5870   4.413   3.156   3.539  1.3652  1.7996  2.7352
  442EMC     C1 5871   1.021   1.729   1.589  0.3283 -0.3939  0.5325
  442EMC     C2 5872   1.370   1.419   1.602 -0.3699 -0.0959 -0.7787
  442EMC     C3 5873   1.167   1.548   1.611  0.6195 -0.6905 -0.1879
  442EMC     O1 5874   1.120   1.659   1.659 -0.3561 -0.0806 -0.5889
  442EMC     O2 5875   1.295   1.532   1.650 -0.0088  0.7139  0.4845
  442EMC     O3 5876   1.103   1.477   1.544 -0.0256  0.0619  0.4987
  442EMC     H1 5877   0.927   1.674   1.595  0.5769 -0.7449  1.2974
  442EMC     H2 5878   1.045   1.745   1.484  0.9013  1.0215  0.8614
  442EMC     H3 5879   1.014   1.831   1.627  1.4849 -0.3459  0.6576
  442EMC     C4 5880   1.385   1.308   1.708  0.0772  0.5831  0.0329
  442EMC     H4 5881   1.464   1.462   1.570  1.3480 -0.7113  2.8988
  442EMC     H5 5882   1.321   1.374   1.515  0.7280 -0.4807 -1.2110
  442EMC     H6 5883   1.460   1.321   1.787 -0.7884 -0.9582  1.1765
  442EMC     H7 5884   1.411   1.215   1.657  3.6083  1.6441 -0.3736
  442EMC     H8 5885   1.291   1.291   1.759  0.3995 -2.1156 -0.1416
  443EMC     C1 5886   4.353   0.388   1.013  0.4721 -0.0031 -0.1631
  443EMC     C2 5887   0.250   0.488   1.020 -0.6138 -0.2192  0.0801
  443EMC     C3 5888   0.075   0.331   1.076 -0.0642  0.4486 -0.2495
  443EMC     O1 5889   4.463   0.401   1.097  0.0469 -0.0497 -0.0055
  443EMC     O2 5890   0.133   0.456   1.094  0.0162  0.5659 -0.0190
  443EMC     O3 5891   0.094   0.257   0.979  0.0766 -0.7027 -0.0082
  443EMC     H1 5892   4.310   0.289   1.005  0.9325 -0.5720  3.0634
  443EMC     H2 5893   4.393   0.425   0.919  1.6205  0.1130  0.3488
  443EMC     H3 5894   4.270   0.447   1.053  1.8248 -0.1054  3.1781
  443EMC     C4 5895   0.313   0.603   1.085 -0.9669 -0.0066 -0.0821
  443EMC     H4 5896   0.234   0.501   0.913 -0.1187 -0.7704 -0.0621
  443EMC     H5 5897   0.325   0.410   1.029 -0.3394  0.0458  0.1255
  443EMC     H6 5898   0.421   0.601   1.076 -1.1315  0.1823 -3.5077
  443EMC     H7 5899   0.287   0.615   1.191  1.3728  1.4011  0.3879
  443EMC     H8 5900   0.292   0.696   1.031  2.9933  2.2517  1.8047
  444EMC     C1 5901   1.816   0.878   3.179 -0.4212  0.3505  0.7974
  444EMC     C2 5902   1.796   0.937   2.759  0.3020 -0.2175  0.0857
  444EMC     C3 5903   1.807   0.806   2.954  0.2287 -0.4335 -0.5922
  444EMC     O1 5904   1.747   0.810   3.068  0.8593  0.0793 -0.3551
  444EMC     O2 5905   1.834   0.922   2.905 -0.2131  0.2867  0.2428
  444EMC     O3 5906   1.785   0.711   2.877  0.5826 -0.2808  0.2973
  444EMC     H1 5907   1.906   0.929   3.144 -1.2105  1.1417 -0.1696
  444EMC     H2 5908   1.828   0.812   3.265 -1.4310 -0.1768  0.5573
  444EMC     H3 5909   1.744   0.954   3.210  0.2021  1.4797 -0.4204
  444EMC     C4 5910   1.811   1.087   2.724 -0.4310  0.3312 -1.1990
  444EMC     H4 5911   1.690   0.925   2.737  0.8306 -0.1719 -2.7412
  444EMC     H5 5912   1.851   0.873   2.689 -1.3299 -2.2444  0.5626
  444EMC     H6 5913   1.744   1.113   2.642 -0.5004  0.3464 -1.1375
  444EMC     H7 5914   1.912   1.110   2.688  0.7393 -1.0038  0.9930
  444EMC     H8 5915   1.795   1.155   2.808  0.7030 -2.1054  1.1298
  445EMC     C1 5916   0.395   0.849   2.013 -1.4268 -0.0540 -0.5794
  445EMC     C2 5917   0.154   1.058   1.671  0.3333 -0.1601  0.6930
  445EMC     C3 5918   0.236   0.898   1.835  0.2734 -0.0011 -0.6741
  445EMC     O1 5919   0.270   0.904   1.962  0.4303  0.7154 -0.3031
  445EMC     O2 5920   0.178   1.014   1.801 -0.3373 -0.2493 -0.3336
  445EMC     O3 5921   0.297   0.834   1.748  0.0545  0.7155 -0.1441
  445EMC     H1 5922   0.463   0.807   1.940 -0.5358 -0.4260  0.4425
  445EMC     H2 5923   0.367   0.775   2.088 -0.4552  2.8185  2.8748
  445EMC     H3 5924   0.451   0.920   2.073 -0.0679 -2.0355  0.6386
  445EMC     C4 5925   0.030   1.003   1.614  0.8411 -0.3144  0.9664
  445EMC     H4 5926   0.238   1.034   1.606 -0.8520  0.3945 -1.1438
  445EMC     H5 5927   0.146   1.167   1.668 -1.2891 -0.1739 -3.6642
  445EMC     H6 5928   4.493   1.058   1.526  2.2316 -0.9555  0.0039
  445EMC     H7 5929   4.449   0.999   1.691 -0.6839  0.1301 -0.4631
  445EMC     H8 5930   0.063   0.900   1.597 -1.1329 -0.7341 -0.7883
  446EMC     C1 5931   3.292   1.946   1.756 -0.0623 -0.6187  0.2443
  446EMC     C2 5932   3.092   1.860   1.429  0.1116 -0.1135  0.6555
  446EMC     C3 5933   3.228   1.775   1.601 -0.3866 -0.7657  0.3851
  446EMC     O1 5934   3.196   1.850   1.709 -0.1137  0.8048 -0.1469
  446EMC     O2 5935   3.111   1.802   1.554 -0.1869  0.2538 -0.2788
  446EMC     O3 5936   3.335   1.782   1.536  0.0040 -0.5463 -0.0104
  446EMC     H1 5937   3.378   1.899   1.804 -0.0903 -0.1090  0.7969
  446EMC     H2 5938   3.256   2.036   1.805  0.8789  0.9775 -1.8180
  446EMC     H3 5939   3.334   1.991   1.666  0.6109  3.9206  2.5440
  446EMC     C4 5940   2.974   1.786   1.358  0.2553 -0.1968 -0.1972
  446EMC     H4 5941   3.183   1.878   1.372 -1.3924  2.3710 -1.1672
  446EMC     H5 5942   3.062   1.965   1.440 -1.7086 -0.5611  0.1943
  446EMC     H6 5943   3.006   1.685   1.334 -0.8130 -0.5188 -0.2853
  446EMC     H7 5944   2.936   1.840   1.272  0.9317 -0.2527 -0.5419
  446EMC     H8 5945   2.893   1.780   1.430  0.3098  0.8234 -0.0239
  447EMC     C1 5946   1.948   3.487   0.728 -0.2822  0.0704  0.8693
  447EMC     C2 5947   2.068   3.869   0.662 -0.4721 -0.2715  0.5304
  447EMC     C3 5948   2.102   3.666   0.783 -0.0679 -0.8489  0.2842
  447EMC     O1 5949   2.066   3.564   0.705 -0.5835  0.0435 -0.0393
  447EMC     O2 5950   2.109   3.732   0.658  0.5695 -0.1259  0.2003
  447EMC     O3 5951   2.031   3.700   0.874 -0.1187 -0.1030 -0.8614
  447EMC     H1 5952   1.875   3.540   0.789 -0.0331  2.3194 -0.6458
  447EMC     H2 5953   1.971   3.393   0.778 -1.1661 -2.4090 -2.9532
  447EMC     H3 5954   1.905   3.460   0.632  0.2423  2.8120 -0.2409
  447EMC     C4 5955   2.130   3.956   0.546 -0.5383  0.1257 -0.7556
  447EMC     H4 5956   2.101   3.913   0.756 -1.5954  0.1147  0.7615
  447EMC     H5 5957   1.959   3.870   0.657 -0.4336  0.5447 -0.6497
  447EMC     H6 5958   2.239   3.956   0.541 -0.5826  0.2497 -2.1188
  447EMC     H7 5959   2.085   4.055   0.549  0.3772  0.6128 -2.2158
  447EMC     H8 5960   2.101   3.930   0.444  1.1263  1.8458 -1.7381
  448EMC     C1 5961   2.624   2.355   4.453 -0.0887 -0.4137 -0.5995
  448EMC     C2 5962   2.560   2.380   0.379 -0.6632  0.3193 -0.0673
  448EMC     C3 5963   2.669   2.414   0.181  0.3646 -0.0880  0.0565
  448EMC     O1 5964   2.679   2.325   0.086  0.0074  0.2529 -0.1475
  448EMC     O2 5965   2.655   2.338   0.285 -0.4547  0.4134  0.2671
  448EMC     O3 5966   2.613   2.524   0.166 -0.0486 -0.2930  0.2038
  448EMC     H1 5967   2.519   2.378   4.468 -0.3837 -2.2137  0.4613
  448EMC     H2 5968   2.623   2.263   4.394 -1.5198  0.0660 -1.3537
  448EMC     H3 5969   2.678   2.431   4.397  1.4702 -0.2417  1.0445
  448EMC     C4 5970   2.551   2.273   0.494  1.0557  0.2306  0.5063
  448EMC     H4 5971   2.459   2.397   0.341 -1.0318  1.6812  1.4350
  448EMC     H5 5972   2.582   2.477   0.423 -2.1657  0.0303  1.4494
  448EMC     H6 5973   2.522   2.184   0.438 -2.7669  1.3208  0.4849
  448EMC     H7 5974   2.474   2.297   0.568  0.3451 -1.8032  0.5042
  448EMC     H8 5975   2.646   2.236   0.532  0.5712 -2.3287 -0.5313
  449EMC     C1 5976   3.718   3.047   0.962  0.0632  0.1392 -0.5311
  449EMC     C2 5977   3.599   3.210   0.613  0.2643 -0.2489  0.8971
  449EMC     C3 5978   3.660   3.020   0.730 -0.6369 -0.3969  0.4049
  449EMC     O1 5979   3.751   3.061   0.822  0.5462  0.2214  0.4550
  449EMC     O2 5980   3.617   3.147   0.735 -0.8869 -0.2876 -0.9837
  449EMC     O3 5981   3.693   2.971   0.624 -0.1949 -0.4360  0.0614
  449EMC     H1 5982   3.620   3.003   0.979  0.4372 -0.4172  0.1913
  449EMC     H2 5983   3.725   3.146   1.008  0.5435 -1.1818  2.4680
  449EMC     H3 5984   3.792   2.981   1.006 -1.3137 -0.6089  0.7473
  449EMC     C4 5985   3.630   3.354   0.656 -0.4830  0.2891 -0.2667
  449EMC     H4 5986   3.496   3.187   0.584 -0.0800  0.9867  1.0616
  449EMC     H5 5987   3.664   3.176   0.533 -2.0940 -3.4000  0.1261
  449EMC     H6 5988   3.703   3.365   0.736 -2.5977  1.6083  1.6148
  449EMC     H7 5989   3.542   3.401   0.702 -0.2088  0.4431  0.1047
  449EMC     H8 5990   3.674   3.404   0.570 -0.9607 -1.3695 -1.5247
  450EMC     C1 5991   2.247   0.618   1.756  0.5634  0.6178  0.2661
  450EMC     C2 5992   1.917   0.772   2.061 -0.1653 -0.1644  0.3103
  450EMC     C3 5993   2.091   0.686   1.912 -0.7519 -0.5850  0.1242
  450EMC     O1 5994   2.162   0.719   1.804 -0.1237  0.4710  0.0312
  450EMC     O2 5995   1.978   0.763   1.934  0.1777  0.5017 -0.2439
  450EMC     O3 5996   2.116   0.591   1.986 -0.0946 -0.0515  0.0815
  450EMC     H1 5997   2.324   0.664   1.695  2.1348  1.1855  2.5670
  450EMC     H2 5998   2.183   0.549   1.701 -0.6592  0.4556  1.8131
  450EMC     H3 5999   2.301   0.560   1.831  4.2180  0.2446 -2.3948
  450EMC     C4 6000   1.777   0.711   2.067 -1.2867 -0.7679  0.1364
  450EMC     H4 6001   1.928   0.879   2.079 -2.0330 -0.0137  0.8425
  450EMC     H5 6002   1.980   0.722   2.134 -1.0438 -2.6773 -0.5492
  450EMC     H6 6003   1.715   0.761   1.993 -1.7045  1.4123  1.8374
  450EMC     H7 6004   1.729   0.730   2.163  1.0529  0.7594  1.1183
  450EMC     H8 6005   1.785   0.603   2.057  3.0832 -0.5886 -0.3995
  451EMC     C1 6006   2.536   1.167   0.909  0.1774 -0.6731  0.0252
  451EMC     C2 6007   2.340   1.300   1.174  0.8131  0.0588  0.7469
  451EMC     C3 6008   2.315   1.150   0.991  0.1200  0.7886 -0.0708
  451EMC     O1 6009   2.431   1.096   0.976 -0.2759  0.1012 -0.0951
  451EMC     O2 6010   2.360   1.174   1.114 -0.3450 -0.7623 -0.0583
  451EMC     O3 6011   2.277   1.238   0.917  0.7863 -0.2991 -0.6957
  451EMC     H1 6012   2.558   1.270   0.939  2.1299  0.2828 -3.9612
  451EMC     H2 6013   2.507   1.162   0.805  0.0138 -0.9587  0.0833
  451EMC     H3 6014   2.623   1.104   0.929  0.2055 -0.4376  0.6771
  451EMC     C4 6015   2.346   1.305   1.328  0.4360 -0.3404 -0.7371
  451EMC     H4 6016   2.245   1.339   1.137 -0.5454 -3.1619  0.5227
  451EMC     H5 6017   2.425   1.354   1.133  1.5370 -1.1787  0.5483
  451EMC     H6 6018   2.451   1.302   1.357  0.9532  2.1797 -2.0840
  451EMC     H7 6019   2.284   1.227   1.373  0.9531 -0.3117  0.0298
  451EMC     H8 6020   2.310   1.405   1.353  0.3424 -0.5083 -0.1864
  452EMC     C1 6021   3.045   1.428   4.215 -1.4387 -0.3591 -0.5189
  452EMC     C2 6022   2.982   1.456   3.841 -0.0304  0.0298 -0.0474
  452EMC     C3 6023   2.863   1.465   4.051 -0.1807 -0.3196 -0.1322
  452EMC     O1 6024   2.949   1.376   4.116  0.3295 -0.2994 -0.7311
  452EMC     O2 6025   2.920   1.389   3.951 -0.2230  0.0626  0.5029
  452EMC     O3 6026   2.879   1.590   4.059  0.3905  0.1265 -0.3799
  452EMC     H1 6027   3.091   1.350   4.276 -1.4057  0.7183  0.8769
  452EMC     H2 6028   2.998   1.508   4.272 -0.5018  2.0004 -2.8497
  452EMC     H3 6029   3.126   1.470   4.156 -0.9359  1.4240  1.3337
  452EMC     C4 6030   3.013   1.358   3.732 -0.0390 -0.2769 -0.5395
  452EMC     H4 6031   3.077   1.481   3.888 -0.8653 -0.3941  1.9636
  452EMC     H5 6032   2.928   1.547   3.815 -0.7685 -0.4817 -0.3446
  452EMC     H6 6033   2.920   1.307   3.706 -0.3951  0.5758 -0.9751
  452EMC     H7 6034   3.071   1.276   3.775 -0.0492  0.4779  0.9808
  452EMC     H8 6035   3.044   1.411   3.642 -1.9947 -1.4637 -2.0088
  453EMC     C1 6036   0.921   0.683   3.494 -0.2734  0.8461 -0.1071
  453EMC     C2 6037   1.195   0.421   3.290  0.0962 -0.8625  0.0030
  453EMC     C3 6038   1.017   0.470   3.454  0.4930 -0.1674  0.0656
  453EMC     O1 6039   0.942   0.567   3.418 -0.0853  0.2724  0.0189
  453EMC     O2 6040   1.058   0.445   3.322 -0.0016 -0.1518 -1.1709
  453EMC     O3 6041   1.087   0.480   3.552 -0.2559 -0.0963  0.3785
  453EMC     H1 6042   0.872   0.763   3.439  0.1050  1.0024 -0.2187
  453EMC     H2 6043   1.010   0.728   3.539 -0.8960  0.8857  1.1228
  453EMC     H3 6044   0.857   0.659   3.578  1.8672 -0.2384  1.3189
  453EMC     C4 6045   1.202   0.384   3.144 -0.9359 -0.5836  0.4175
  453EMC     H4 6046   1.240   0.354   3.363 -0.5639  0.1503  1.3634
  453EMC     H5 6047   1.260   0.509   3.298  0.7654 -1.4322  1.1645
  453EMC     H6 6048   1.153   0.288   3.127  0.4220 -1.7757  2.6358
  453EMC     H7 6049   1.305   0.365   3.112 -1.0915 -0.0763 -0.4183
  453EMC     H8 6050   1.168   0.459   3.074 -0.3137 -2.1279 -1.6448
  454EMC     C1 6051   0.747   0.399   2.610 -0.7019  0.3222 -0.3360
  454EMC     C2 6052   0.876   0.301   2.965  0.3347  1.0059  0.0634
  454EMC     C3 6053   0.809   0.482   2.824  0.1227 -0.4483 -0.1449
  454EMC     O1 6054   0.726   0.411   2.749  0.7031 -0.3545 -0.1823
  454EMC     O2 6055   0.778   0.381   2.896 -0.2222  0.7203 -0.3883
  454EMC     O3 6056   0.923   0.516   2.795 -0.3950 -0.3264 -0.4513
  454EMC     H1 6057   0.849   0.410   2.573 -1.0955  0.7927 -1.2940
  454EMC     H2 6058   0.689   0.470   2.552 -2.0858 -2.0116 -1.9467
  454EMC     H3 6059   0.713   0.299   2.582  0.3754 -0.1170 -0.1333
  454EMC     C4 6060   0.826   0.153   3.002  0.1666  0.1315 -0.1901
  454EMC     H4 6061   0.921   0.350   3.051 -1.0282  0.0715  1.3374
  454EMC     H5 6062   0.948   0.276   2.887 -1.4948  3.5423 -2.6677
  454EMC     H6 6063   0.813   0.104   2.906  1.9273  0.9572 -0.9038
  454EMC     H7 6064   0.737   0.147   3.065 -1.3610 -3.6565 -2.4294
  454EMC     H8 6065   0.900   0.099   3.060  0.4900 -0.2358 -0.9365
  455EMC     C1 6066   0.327   3.778   0.506  0.1184  0.4419 -0.5213
  455EMC     C2 6067   0.595   3.891   0.205  1.0520  0.1077 -0.2302
  455EMC     C3 6068   0.358   3.887   0.292  1.1980 -0.3462 -0.7307
  455EMC     O1 6069   0.398   3.872   0.426 -0.9385  0.6196  0.2130
  455EMC     O2 6070   0.494   3.868   0.308 -0.5220 -0.1637  0.3522
  455EMC     O3 6071   0.272   3.815   0.231  0.6103  0.2868 -0.0519
  455EMC     H1 6072   0.360   3.784   0.610  0.0141  0.5184 -0.4927
  455EMC     H2 6073   0.339   3.676   0.469  0.1104  0.8837 -1.7966
  455EMC     H3 6074   0.218   3.782   0.509  0.1079  0.0305 -0.3203
  455EMC     C4 6075   0.640   4.043   0.189  0.4852 -0.1316  0.2697
  455EMC     H4 6076   0.572   3.855   0.105 -1.0686  0.7285 -0.0161
  455EMC     H5 6077   0.684   3.832   0.227  0.4326 -0.5855  0.4741
  455EMC     H6 6078   0.703   4.061   0.102 -1.4329  2.8908 -0.6464
  455EMC     H7 6079   0.691   4.089   0.274 -3.1687  0.2920  2.4263
  455EMC     H8 6080   0.556   4.104   0.158  1.6532  1.6633  0.4559
  456EMC     C1 6081   0.602   3.309   4.020  0.0393  0.0999 -0.3811
  456EMC     C2 6082   0.937   3.448   4.125 -0.0137 -0.2618 -0.4133
  456EMC     C3 6083   0.784   3.286   4.177 -0.2614 -0.5140  0.1776
  456EMC     O1 6084   0.672   3.352   4.137 -0.1580 -0.3352  0.0656
  456EMC     O2 6085   0.822   3.408   4.202  0.1074  0.3748  0.5704
  456EMC     O3 6086   0.848   3.211   4.099 -0.0098 -0.5241 -0.2782
  456EMC     H1 6087   0.679   3.279   3.950 -0.0581 -1.1668  0.0412
  456EMC     H2 6088   0.540   3.388   3.976 -0.3304  0.5255  0.8654
  456EMC     H3 6089   0.540   3.224   4.046 -1.4305  1.1197 -0.4107
  456EMC     C4 6090   0.982   3.594   4.154  0.4093 -0.0286  0.5507
  456EMC     H4 6091   0.948   3.435   4.017  2.4381 -2.0854 -0.0220
  456EMC     H5 6092   1.016   3.383   4.161  1.9813  1.6445 -1.1254
  456EMC     H6 6093   1.086   3.619   4.130 -0.2343  1.8219 -0.4570
  456EMC     H7 6094   0.977   3.615   4.261  0.5354 -1.6757  0.9185
  456EMC     H8 6095   0.906   3.657   4.110  0.1638 -0.4499  0.3660
  457EMC     C1 6096   1.196   0.050   2.917 -0.8651 -0.6282  0.7849
  457EMC     C2 6097   0.852   0.019   2.620 -0.1926  0.2599 -0.3946
  457EMC     C3 6098   1.061   0.014   2.733  0.3526  1.0530  0.2689
  457EMC     O1 6099   1.090   0.092   2.832  0.1868  0.2145 -0.5333
  457EMC     O2 6100   0.964   0.076   2.685 -0.3667 -0.2557  0.1999
  457EMC     O3 6101   1.068   4.384   2.733  0.0901 -0.0896 -0.1514
  457EMC     H1 6102   1.283   0.050   2.852 -1.7365  0.2283 -0.4270
  457EMC     H2 6103   1.188   4.441   2.946 -0.2266 -1.1272 -0.7229
  457EMC     H3 6104   1.222   0.127   2.989  0.4863  1.6538 -1.9416
  457EMC     C4 6105   0.848   0.071   2.477 -0.3317  0.1030 -0.1212
  457EMC     H4 6106   0.764   0.053   2.676  0.9043  2.5242  0.0776
  457EMC     H5 6107   0.860   4.407   2.613 -1.4736  0.2040 -1.3577
  457EMC     H6 6108   0.764   0.015   2.435  0.3021 -0.7599 -0.2775
  457EMC     H7 6109   0.940   0.051   2.421  2.1599  2.3341  2.8254
  457EMC     H8 6110   0.831   0.178   2.469 -0.3612  0.1229  0.2169
  458EMC     C1 6111   2.921   2.478   2.791 -0.1975  0.0982  0.5454
  458EMC     C2 6112   2.898   2.625   3.110  0.0714 -0.2028 -0.2669
  458EMC     C3 6113   2.953   2.410   3.014 -0.3126  0.2814  0.7894
  458EMC     O1 6114   3.007   2.482   2.905  0.9057  0.2100 -0.0826
  458EMC     O2 6115   2.989   2.531   3.062  0.3191  0.0788  0.5729
  458EMC     O3 6116   2.835   2.376   3.013  0.4068 -0.9397  0.0465
  458EMC     H1 6117   2.938   2.380   2.746  0.4089  0.9231 -1.0979
  458EMC     H2 6118   2.954   2.559   2.725  0.2984 -0.2212  0.3967
  458EMC     H3 6119   2.814   2.490   2.811 -0.5010  2.8519 -1.9620
  458EMC     C4 6120   2.982   2.719   3.197  0.2330 -0.5336 -0.6130
  458EMC     H4 6121   2.811   2.590   3.166 -0.4340 -0.4076 -1.1626
  458EMC     H5 6122   2.858   2.681   3.025  1.1951  1.8484  0.4743
  458EMC     H6 6123   3.008   2.668   3.290 -0.1270 -2.6932 -1.6461
  458EMC     H7 6124   2.925   2.803   3.239  2.5712  0.7464  0.1514
  458EMC     H8 6125   3.066   2.770   3.150  1.1531 -1.8080 -0.3862
  459EMC     C1 6126   0.599   1.056   1.824  0.4516  0.0387 -0.1871
  459EMC     C2 6127   0.614   1.395   2.143  0.3908  0.0528  0.5331
  459EMC     C3 6128   0.567   1.227   1.978  0.2042 -0.3437  0.8180
  459EMC     O1 6129   0.608   1.193   1.868 -0.5223  0.3112 -0.4500
  459EMC     O2 6130   0.607   1.353   2.010 -0.1815  0.2443  0.5486
  459EMC     O3 6131   0.515   1.154   2.057 -0.1797  0.1784 -0.1806
  459EMC     H1 6132   0.498   1.014   1.828  0.0947  0.7296 -1.3832
  459EMC     H2 6133   0.650   0.995   1.898 -1.5835  0.9674  2.1425
  459EMC     H3 6134   0.627   1.040   1.720 -1.6816 -0.5856 -0.7055
  459EMC     C4 6135   0.628   1.549   2.151  0.2606  0.5197 -0.2282
  459EMC     H4 6136   0.694   1.352   2.203  1.3203  1.5193  0.4140
  459EMC     H5 6137   0.520   1.374   2.194 -0.3931  2.0395  0.0181
  459EMC     H6 6138   0.725   1.586   2.118  0.5339  1.5485  1.6207
  459EMC     H7 6139   0.618   1.574   2.256 -0.8468 -2.1766  0.3874
  459EMC     H8 6140   0.546   1.597   2.098 -0.6252 -1.3454 -0.6233
  460EMC     C1 6141   3.636   4.214   1.154 -0.5353 -0.2390  0.8090
  460EMC     C2 6142   3.271   4.227   1.283 -0.0963  0.3219  0.8919
  460EMC     C3 6143   3.409   4.152   1.108 -0.6385  0.3459 -0.3923
  460EMC     O1 6144   3.522   4.133   1.173 -0.7952 -0.7657  0.6147
  460EMC     O2 6145   3.362   4.134   1.232  0.3380  0.2063 -0.2362
  460EMC     O3 6146   3.375   4.245   1.036  0.3390 -0.5812  0.4243
  460EMC     H1 6147   3.633   4.311   1.203  0.1301  0.9657 -1.4304
  460EMC     H2 6148   3.649   4.230   1.047  1.3990 -0.6487  0.9474
  460EMC     H3 6149   3.728   4.165   1.187 -1.0779 -0.3325  2.2329
  460EMC     C4 6150   3.220   4.180   1.414  0.1111 -0.1328 -0.0887
  460EMC     H4 6151   3.193   4.235   1.207  1.6142 -1.2576 -1.1564
  460EMC     H5 6152   3.320   4.325   1.283 -0.7485  0.7396 -1.7598
  460EMC     H6 6153   3.146   4.250   1.454  0.1462 -0.4012  0.4630
  460EMC     H7 6154   3.300   4.159   1.485 -0.0753 -0.8689 -0.0869
  460EMC     H8 6155   3.164   4.087   1.406 -0.0765  0.0375 -0.7368
  461EMC     C1 6156   4.067   3.295   1.177 -0.0877 -0.2476  0.4377
  461EMC     C2 6157   3.742   3.473   1.036  0.3351 -0.5434  0.0899
  461EMC     C3 6158   3.878   3.436   1.222 -0.0852  0.7597  0.1930
  461EMC     O1 6159   3.964   3.393   1.137  0.5150 -0.3196 -0.3540
  461EMC     O2 6160   3.771   3.406   1.156  0.4068 -0.5205 -0.2574
  461EMC     O3 6161   3.889   3.419   1.345  0.1168 -0.5779  0.4146
  461EMC     H1 6162   4.008   3.203   1.185  0.2008 -0.7189 -2.0736
  461EMC     H2 6163   4.128   3.314   1.265 -0.7361 -0.4575  0.9438
  461EMC     H3 6164   4.135   3.285   1.093  0.9443  0.7207  1.1205
  461EMC     C4 6165   3.597   3.470   1.018  1.1005 -0.8977  0.0389
  461EMC     H4 6166   3.779   3.416   0.951 -3.1574 -1.0460 -1.2403
  461EMC     H5 6167   3.791   3.570   1.033  0.1265 -0.3873  1.2317
  461EMC     H6 6168   3.583   3.520   0.922  1.9785  1.3612  1.0208
  461EMC     H7 6169   3.540   3.517   1.098  0.9498 -3.1237  1.3190
  461EMC     H8 6170   3.562   3.367   1.018  0.1683 -0.6030  0.9911
  462EMC     C1 6171   4.219   1.117   0.956 -0.4870 -0.4615 -0.0458
  462EMC     C2 6172   4.361   0.864   1.246  0.5977 -1.0546 -0.7620
  462EMC     C3 6173   4.361   1.078   1.140 -0.1460 -0.0763  0.1851
  462EMC     O1 6174   4.334   1.047   1.012  0.2762 -0.1480  0.4775
  462EMC     O2 6175   4.392   0.943   1.135  0.2129  0.3500 -0.2469
  462EMC     O3 6176   4.293   1.137   1.225  0.1874  0.4379 -0.6230
  462EMC     H1 6177   4.136   1.107   1.024 -0.8968 -0.0774 -0.4793
  462EMC     H2 6178   4.191   1.073   0.860  1.4679 -2.0875  0.0670
  462EMC     H3 6179   4.246   1.221   0.935  1.4718 -0.6528  1.2414
  462EMC     C4 6180   4.377   0.718   1.214 -0.4424 -0.3758  0.0810
  462EMC     H4 6181   4.259   0.878   1.284  0.6858 -1.2751 -0.4395
  462EMC     H5 6182   4.430   0.889   1.326 -0.9885  2.4360 -0.2497
  462EMC     H6 6183   4.305   0.686   1.138 -1.6571  3.7764 -0.7552
  462EMC     H7 6184   4.363   0.677   1.314 -0.1063  1.1906  0.8039
  462EMC     H8 6185   4.481   0.704   1.186 -0.4498 -1.2858  0.4731
  463EMC     C1 6186   1.114   3.679   0.960 -0.1997 -0.1930 -0.0709
  463EMC     C2 6187   1.245   3.295   0.876  0.0987 -0.1978 -0.0037
  463EMC     C3 6188   1.186   3.462   1.049 -0.5286  0.2919  0.7130
  463EMC     O1 6189   1.101   3.537   0.975  0.1498  0.0668 -0.3782
  463EMC     O2 6190   1.150   3.365   0.955  0.3505  0.4150 -0.2501
  463EMC     O3 6191   1.302   3.498   1.063  0.2727  0.8266 -0.4104
  463EMC     H1 6192   1.192   3.726   1.019  0.6867  0.1755 -1.4760
  463EMC     H2 6193   1.018   3.728   0.972 -0.1470  0.1924 -1.1560
  463EMC     H3 6194   1.136   3.696   0.855  1.6950 -1.3446  0.0794
  463EMC     C4 6195   1.198   3.285   0.730  0.3903  0.2031  0.4091
  463EMC     H4 6196   1.259   3.196   0.918  2.2356  0.1571  0.2670
  463EMC     H5 6197   1.340   3.347   0.888 -0.3237  1.4542 -2.8545
  463EMC     H6 6198   1.213   3.377   0.674 -3.5755  2.2027  2.1719
  463EMC     H7 6199   1.091   3.264   0.729  0.6074 -0.9781  0.2143
  463EMC     H8 6200   1.245   3.203   0.675 -0.4426  0.1293 -0.2144
  464EMC     C1 6201   1.234   0.414   0.112 -0.0116 -0.8282 -0.7645
  464EMC     C2 6202   0.950   0.625   0.354 -0.3272  0.2393  0.2271
  464EMC     C3 6203   1.147   0.607   0.227  0.3031 -0.1865  0.2725
  464EMC     O1 6204   1.148   0.524   0.112  0.0907  0.3076  0.7640
  464EMC     O2 6205   1.017   0.621   0.225 -0.3388 -0.1300 -0.8362
  464EMC     O3 6206   1.213   0.588   0.328 -0.3002  0.3363 -0.1799
  464EMC     H1 6207   1.166   0.329   0.109 -0.1154 -0.8236  0.9220
  464EMC     H2 6208   1.287   0.400   0.206 -2.0602  1.5156  0.8739
  464EMC     H3 6209   1.301   0.414   0.026  2.3438  0.3845  0.9750
  464EMC     C4 6210   0.807   0.655   0.342 -0.1179 -0.3118 -0.6026
  464EMC     H4 6211   1.009   0.691   0.417 -2.5146  2.7715 -0.2431
  464EMC     H5 6212   0.949   0.533   0.412 -2.7131  2.5352  4.2357
  464EMC     H6 6213   0.755   0.571   0.295 -2.5478  0.6327  0.2589
  464EMC     H7 6214   0.806   0.751   0.290 -0.5579  1.1506  1.9621
  464EMC     H8 6215   0.775   0.678   0.443  1.4353  0.6420 -0.3122
  465EMC     C1 6216   1.973   2.283   3.614  0.3775  0.1801  0.4373
  465EMC     C2 6217   1.797   2.670   3.436  0.6866  0.0791 -0.7664
  465EMC     C3 6218   1.841   2.480   3.584 -0.6926  0.2341  0.0195
  465EMC     O1 6219   1.938   2.424   3.652  0.2351  0.5061  0.7317
  465EMC     O2 6220   1.881   2.603   3.530 -0.1429  0.0131  0.3492
  465EMC     O3 6221   1.744   2.416   3.548 -0.4433  0.6680 -0.4652
  465EMC     H1 6222   2.067   2.254   3.661  0.3143 -0.3616  0.2383
  465EMC     H2 6223   1.986   2.277   3.505 -1.9644 -0.4637  0.1531
  465EMC     H3 6224   1.897   2.211   3.642 -1.5277  2.8492  2.5829
  465EMC     C4 6225   1.834   2.815   3.428 -1.1710  0.4599  0.2659
  465EMC     H4 6226   1.694   2.667   3.472  0.6765  1.4209 -0.6279
  465EMC     H5 6227   1.792   2.624   3.338 -1.6648 -0.2015 -0.5749
  465EMC     H6 6228   1.823   2.857   3.328 -0.0669  4.0822  1.5053
  465EMC     H7 6229   1.937   2.832   3.461  0.0459 -1.5918 -2.1874
  465EMC     H8 6230   1.768   2.881   3.486 -1.3553  0.6657 -0.1747
  466EMC     C1 6231   2.718   3.920   2.384 -0.3291  0.0865 -0.3870
  466EMC     C2 6232   2.443   4.151   2.513 -0.7976  0.0378 -0.3516
  466EMC     C3 6233   2.485   3.938   2.425  0.4665  0.3823  0.4899
  466EMC     O1 6234   2.593   3.957   2.339  0.4736  0.3125 -0.4913
  466EMC     O2 6235   2.470   4.066   2.405 -0.2644  0.4555  0.1990
  466EMC     O3 6236   2.485   3.883   2.538 -0.0548  0.0729  0.3426
  466EMC     H1 6237   2.770   4.003   2.431  0.8581 -0.5191 -0.6047
  466EMC     H2 6238   2.786   3.897   2.302  0.5096  1.2670 -0.0431
  466EMC     H3 6239   2.706   3.839   2.455 -1.5680 -0.6498 -1.3801
  466EMC     C4 6240   2.495   4.298   2.484  0.1031 -0.3981  0.1927
  466EMC     H4 6241   2.512   4.116   2.591  0.1343  2.9958  0.2836
  466EMC     H5 6242   2.341   4.154   2.549  0.0442  1.2086  2.2109
  466EMC     H6 6243   2.596   4.295   2.443 -0.5729 -1.6201 -1.4834
  466EMC     H7 6244   2.492   4.356   2.576  0.8503 -0.4236  0.2428
  466EMC     H8 6245   2.440   4.351   2.407 -2.9155 -2.8259  0.4835
  467EMC     C1 6246   4.221   3.816   3.164 -0.5074 -0.2162 -0.2593
  467EMC     C2 6247   4.115   3.712   3.477  0.6136  0.3158  0.1429
  467EMC     C3 6248   4.018   3.808   3.275 -0.1323  0.3908 -0.1493
  467EMC     O1 6249   4.106   3.747   3.204  0.4958 -0.4423  0.1403
  467EMC     O2 6250   4.046   3.695   3.350 -0.3908 -0.0979  0.1671
  467EMC     O3 6251   4.031   3.923   3.322  0.3020  0.2759  0.0170
  467EMC     H1 6252   4.184   3.894   3.098  0.9507  0.3554 -0.4143
  467EMC     H2 6253   4.297   3.759   3.111 -1.2869 -0.5888 -0.9997
  467EMC     H3 6254   4.280   3.853   3.248 -0.1393 -0.4080 -0.4331
  467EMC     C4 6255   4.132   3.578   3.553 -0.2243 -0.0603 -0.4673
  467EMC     H4 6256   4.057   3.785   3.534 -1.4550  0.8289 -2.4051
  467EMC     H5 6257   4.217   3.741   3.450  0.9677 -0.6210  0.4520
  467EMC     H6 6258   4.033   3.534   3.569  0.2013 -1.1991 -0.8554
  467EMC     H7 6259   4.183   3.591   3.649 -1.8095 -0.9926  0.5600
  467EMC     H8 6260   4.200   3.512   3.499  0.2236 -1.5821  1.8062
  468EMC     C1 6261   2.384   3.467   0.744 -0.4808  0.5996  0.7720
  468EMC     C2 6262   2.527   3.861   0.957 -0.6897  0.0167  0.2283
  468EMC     C3 6263   2.485   3.660   0.846 -0.4079 -0.3612 -0.1090
  468EMC     O1 6264   2.399   3.560   0.853  0.1432  0.0321  0.2568
  468EMC     O2 6265   2.437   3.754   0.930  0.3804 -0.5683 -0.7203
  468EMC     O3 6266   2.576   3.676   0.761  0.1683  0.1640  0.2233
  468EMC     H1 6267   2.363   3.516   0.648 -1.5954 -2.1398 -0.4965
  468EMC     H2 6268   2.297   3.401   0.752  0.3077 -0.3193  2.0121
  468EMC     H3 6269   2.473   3.404   0.740  0.5070  1.9084  1.5128
  468EMC     C4 6270   2.464   3.965   1.052 -0.9055 -0.0113  0.6446
  468EMC     H4 6271   2.559   3.904   0.862 -1.0183  1.1793  0.6307
  468EMC     H5 6272   2.616   3.822   1.007 -1.6621 -0.9152  1.2848
  468EMC     H6 6273   2.440   4.064   1.011 -0.4112 -0.6029 -1.1691
  468EMC     H7 6274   2.547   3.988   1.118  0.0133  2.0382 -1.1004
  468EMC     H8 6275   2.382   3.921   1.109 -0.2400  0.1946  1.7911
  469EMC     C1 6276   1.293   1.071   0.020 -0.0944 -0.1491 -0.5305
  469EMC     C2 6277   1.477   1.175   0.371  0.3346  0.4527  0.2725
  469EMC     C3 6278   1.288   1.152   0.244 -0.3394 -0.6294  0.0775
  469EMC     O1 6279   1.282   1.038   0.158  0.3243  0.2542 -0.1204
  469EMC     O2 6280   1.390   1.089   0.307  0.0308  0.1651 -0.3152
  469EMC     O3 6281   1.297   1.273   0.205  0.6570 -0.1126 -0.4442
  469EMC     H1 6282   1.197   1.102   4.475 -1.3120 -1.9331  0.8190
  469EMC     H2 6283   1.315   0.977   4.465 -0.2855 -0.1084 -0.6896
  469EMC     H3 6284   1.374   1.139   4.493 -1.2008  1.4101  0.0173
  469EMC     C4 6285   1.581   1.090   0.444  0.0237  0.2346  0.2035
  469EMC     H4 6286   1.412   1.228   0.441 -0.2832  3.6599 -2.4426
  469EMC     H5 6287   1.530   1.240   0.302  0.4698 -0.2546 -0.3090
  469EMC     H6 6288   1.547   1.000   0.496  2.4566 -0.0146  1.4730
  469EMC     H7 6289   1.639   1.148   0.515 -0.1376  0.4716  0.1437
  469EMC     H8 6290   1.649   1.055   0.366 -1.2390 -0.9658 -0.4118
  470EMC     C1 6291   1.083   2.862   0.790 -0.1949  0.0746 -0.1318
  470EMC     C2 6292   1.411   2.895   0.888  0.2795 -0.7791  0.2861
  470EMC     C3 6293   1.290   2.915   0.692  0.1685  0.3605  0.1272
  470EMC     O1 6294   1.173   2.959   0.731 -0.0550 -0.4528 -0.3559
  470EMC     O2 6295   1.365   2.974   0.782 -0.3874  0.0024 -0.2924
  470EMC     O3 6296   1.323   2.930   0.571  0.8038 -0.2392 -1.0775
  470EMC     H1 6297   1.050   2.780   0.727 -3.8278  1.5624 -0.3880
  470EMC     H2 6298   0.985   2.900   0.818 -0.6837 -0.0981 -1.5333
  470EMC     H3 6299   1.134   2.823   0.879 -0.8635 -1.7141 -0.4835
  470EMC     C4 6300   1.511   2.973   0.982 -0.1681  0.6554  0.0349
  470EMC     H4 6301   1.451   2.809   0.835  2.2485  0.9174 -1.1359
  470EMC     H5 6302   1.322   2.866   0.945  0.2920  1.6183  1.6752
  470EMC     H6 6303   1.579   3.037   0.925 -0.5141 -1.0944 -2.5641
  470EMC     H7 6304   1.577   2.900   1.029  1.0741  1.0990 -0.9645
  470EMC     H8 6305   1.451   3.031   1.051 -3.3860  2.2322 -3.7027
  471EMC     C1 6306   3.742   1.137   3.234  0.7016  0.9881 -0.3866
  471EMC     C2 6307   3.377   0.972   3.174  0.3412  0.9357  0.6995
  471EMC     C3 6308   3.508   1.162   3.214 -0.0836 -0.3809 -0.0484
  471EMC     O1 6309   3.610   1.115   3.286 -0.1412  0.2900  0.3993
  471EMC     O2 6310   3.442   1.057   3.263 -0.1681  0.6072  0.6006
  471EMC     O3 6311   3.520   1.191   3.092  0.5428 -0.6046  0.4555
  471EMC     H1 6312   3.818   1.067   3.269  1.5609  0.4564 -3.0944
  471EMC     H2 6313   3.770   1.243   3.236 -2.7980  2.1032 -1.9679
  471EMC     H3 6314   3.739   1.127   3.126 -2.7631 -2.1142 -0.1848
  471EMC     C4 6315   3.367   0.828   3.231 -0.1459  0.4252 -0.7649
  471EMC     H4 6316   3.433   0.961   3.081 -0.8004  1.1695 -0.0310
  471EMC     H5 6317   3.284   1.014   3.136  0.0668 -0.5762 -0.3985
  471EMC     H6 6318   3.472   0.801   3.246 -0.1498  0.3159 -0.9290
  471EMC     H7 6319   3.327   0.754   3.162 -0.6170  0.5859 -0.6710
  471EMC     H8 6320   3.308   0.812   3.321  2.2556 -1.4098  0.6131
  472EMC     C1 6321   2.647   3.522   2.953  1.0632 -0.0838  0.2217
  472EMC     C2 6322   2.980   3.716   2.782 -0.2501  0.0184  0.1356
  472EMC     C3 6323   2.796   3.580   2.790  0.3596  0.5055  0.7364
  472EMC     O1 6324   2.778   3.535   2.909 -0.4655  0.0505  0.8588
  472EMC     O2 6325   2.924   3.590   2.798 -0.2496  0.3527 -0.0116
  472EMC     O3 6326   2.736   3.672   2.739  0.4825 -0.1661 -0.4186
  472EMC     H1 6327   2.657   3.524   3.062 -1.2348 -1.7010  0.5164
  472EMC     H2 6328   2.600   3.434   2.910  0.1585 -0.1732  1.3512
  472EMC     H3 6329   2.593   3.615   2.934 -0.8017 -0.8745  1.3589
  472EMC     C4 6330   3.131   3.704   2.796 -0.0943  0.1478  0.1150
  472EMC     H4 6331   2.935   3.782   2.856  1.7130 -0.6389  2.0298
  472EMC     H5 6332   2.955   3.765   2.688  0.4516  0.2378  0.0532
  472EMC     H6 6333   3.157   3.642   2.710 -0.5504  0.2087 -0.0655
  472EMC     H7 6334   3.175   3.652   2.881  0.9438  1.7493  0.5872
  472EMC     H8 6335   3.179   3.801   2.793 -1.8136  1.0174 -0.7181
  473EMC     C1 6336   0.282   0.251   3.163 -0.0189 -0.2334 -0.3259
  473EMC     C2 6337   0.181   4.356   3.422  0.2454 -0.0375 -0.0257
  473EMC     C3 6338   0.206   0.056   3.287 -0.0370 -0.4697 -0.0749
  473EMC     O1 6339   0.293   0.112   3.201 -0.1281 -0.1883  0.2206
  473EMC     O2 6340   0.216   4.415   3.299  0.3475  0.2124  0.1937
  473EMC     O3 6341   0.118   0.120   3.342  0.1798 -0.7240  0.2749
  473EMC     H1 6342   0.180   0.287   3.153  0.2733  0.1361 -2.5039
  473EMC     H2 6343   0.339   0.267   3.071  0.1341 -1.7150 -0.5041
  473EMC     H3 6344   0.336   0.310   3.238  1.0556  0.7493 -1.8208
  473EMC     C4 6345   0.253   4.221   3.404 -0.2639  0.3572  0.7220
  473EMC     H4 6346   0.075   4.353   3.446  0.3651  1.4178  0.7513
  473EMC     H5 6347   0.232   4.406   3.505  0.0391 -2.4086  1.6634
  473EMC     H6 6348   0.360   4.241   3.410 -0.0727 -0.2526 -0.3131
  473EMC     H7 6349   0.217   4.179   3.310 -0.0266  1.4096  0.1514
  473EMC     H8 6350   0.231   4.149   3.483 -1.7493  0.6359  0.5854
  474EMC     C1 6351   1.396   4.082   3.447  0.1682  0.4461 -0.5296
  474EMC     C2 6352   1.515   4.432   3.728 -0.2139 -0.2772 -0.4872
  474EMC     C3 6353   1.404   4.261   3.604  0.6029  0.0512 -0.1916
  474EMC     O1 6354   1.448   4.136   3.566  0.7965 -0.0552 -0.0795
  474EMC     O2 6355   1.502   4.295   3.690 -0.4067  0.9551 -0.4583
  474EMC     O3 6356   1.310   4.324   3.548 -0.4954 -0.0135 -0.0709
  474EMC     H1 6357   1.469   4.092   3.367 -2.5915  1.5728 -3.0689
  474EMC     H2 6358   1.306   4.136   3.418 -0.4882 -1.5871 -2.5893
  474EMC     H3 6359   1.358   3.980   3.445  1.2403  0.0472 -1.3014
  474EMC     C4 6360   1.662   4.482   3.743  0.2922  0.4601  0.0511
  474EMC     H4 6361   1.467   4.451   3.824  1.1333 -0.6290  0.2782
  474EMC     H5 6362   1.459   4.494   3.657 -1.4028 -0.4213  0.2934
  474EMC     H6 6363   1.661   0.092   3.769 -0.9336  0.1723  1.3137
  474EMC     H7 6364   1.718   4.455   3.654  0.5042  2.1255 -0.3523
  474EMC     H8 6365   1.703   4.423   3.825 -0.9809 -0.6663 -0.0736
  475EMC     C1 6366   1.242   2.653   2.185 -0.4596  0.7249  1.3957
  475EMC     C2 6367   0.915   2.608   1.950 -0.1929  0.3366 -0.2304
  475EMC     C3 6368   1.042   2.750   2.082 -0.5926  0.5150 -0.1637
  475EMC     O1 6369   1.161   2.690   2.067  0.2333  0.7071  0.2376
  475EMC     O2 6370   1.036   2.681   1.971  0.3219 -0.5998 -0.2119
  475EMC     O3 6371   0.976   2.726   2.188 -0.0418 -0.8857 -0.1023
  475EMC     H1 6372   1.336   2.605   2.158 -1.1754 -0.8086  1.5184
  475EMC     H2 6373   1.197   2.586   2.258  0.5376 -4.4080 -2.1323
  475EMC     H3 6374   1.272   2.740   2.242  0.3832 -0.3719  2.6841
  475EMC     C4 6375   0.831   2.669   1.838  0.0036 -0.3767 -0.7591
  475EMC     H4 6376   0.845   2.599   2.033 -1.4429  0.6147 -1.2159
  475EMC     H5 6377   0.947   2.507   1.926 -0.5966  0.3129 -0.6978
  475EMC     H6 6378   0.786   2.757   1.884  1.5338  0.5753 -1.0187
  475EMC     H7 6379   0.759   2.601   1.792 -1.5811  0.8676 -0.2045
  475EMC     H8 6380   0.890   2.706   1.754 -1.3930  1.1075 -1.1370
  476EMC     C1 6381   2.671   1.975   0.128  0.4441 -0.0030  0.0400
  476EMC     C2 6382   2.442   1.860   4.238  0.1471  0.4455 -0.6178
  476EMC     C3 6383   2.601   1.918   4.404  0.0208 -0.6096 -0.3635
  476EMC     O1 6384   2.618   1.885   0.034  0.6013 -0.0966 -0.0087
  476EMC     O2 6385   2.495   1.846   4.368 -0.1996  0.7276 -0.6665
  476EMC     O3 6386   2.635   2.022   4.354  0.1771 -0.6285 -0.0278
  476EMC     H1 6387   2.634   1.940   0.224 -0.0775 -0.5131 -0.3454
  476EMC     H2 6388   2.627   2.075   0.130 -0.9797 -0.4725  4.8145
  476EMC     H3 6389   2.779   1.978   0.115  0.7027 -1.0407  1.6890
  476EMC     C4 6390   2.518   1.789   4.123 -0.0357 -0.5880 -0.5968
  476EMC     H4 6391   2.439   1.964   4.206  0.4797  0.8057  0.4569
  476EMC     H5 6392   2.343   1.817   4.233  1.0989 -1.8028 -1.1183
  476EMC     H6 6393   2.603   1.850   4.094 -0.7068 -0.0805 -1.5422
  476EMC     H7 6394   2.447   1.781   4.041  0.6384  3.2311 -1.7174
  476EMC     H8 6395   2.557   1.689   4.146 -0.8292 -0.7050  0.2891
  477EMC     C1 6396   2.407   0.011   4.414 -1.0423 -0.1085  0.5387
  477EMC     C2 6397   2.684   4.189   4.472  0.9164 -0.2721  0.8274
  477EMC     C3 6398   2.632   4.409   4.398 -0.1150  0.8238  0.0955
  477EMC     O1 6399   2.507   4.413   4.348  0.7914 -0.5168  0.4536
  477EMC     O2 6400   2.622   4.282   4.382  0.3431 -0.0277 -0.1888
  477EMC     O3 6401   2.668   4.464   0.010  0.0274 -0.1401  0.5656
  477EMC     H1 6402   2.314   0.013   4.357  0.4423  1.0595 -2.0191
  477EMC     H2 6403   2.451   0.110   4.413 -0.3164 -0.3723 -1.8298
  477EMC     H3 6404   2.390   4.478   0.021  1.9619  0.2928  1.2472
  477EMC     C4 6405   2.695   4.047   4.400  0.0539 -0.3574 -0.5815
  477EMC     H4 6406   2.618   4.166   0.059 -2.2117 -1.7822 -1.8390
  477EMC     H5 6407   2.778   4.228   0.014  0.7934  1.0118 -0.1043
  477EMC     H6 6408   2.736   3.983   4.478  0.7925 -1.6890 -2.0050
  477EMC     H7 6409   2.760   4.046   4.312 -0.8751  0.2313 -1.2953
  477EMC     H8 6410   2.601   3.999   4.375 -1.2871  2.0358 -0.4792
  478EMC     C1 6411   3.661   0.929   3.530  0.1689 -0.3790  0.2300
  478EMC     C2 6412   3.677   0.849   3.913  0.2960 -0.6063  0.1002
  478EMC     C3 6413   3.563   0.801   3.716 -0.0172  0.1609 -1.0796
  478EMC     O1 6414   3.665   0.822   3.622  0.0378 -0.2528 -0.7879
  478EMC     O2 6415   3.679   0.798   3.783  0.0096  0.3811  0.0935
  478EMC     O3 6416   3.484   0.891   3.744 -0.9212  1.0851  0.3656
  478EMC     H1 6417   3.720   1.007   3.576 -2.0052  0.7169  1.3139
  478EMC     H2 6418   3.557   0.963   3.527  0.5280  0.8599  1.1579
  478EMC     H3 6419   3.696   0.890   3.434  0.1920 -0.6380  0.3420
  478EMC     C4 6420   3.766   0.755   3.995  0.0911 -0.5610 -0.1104
  478EMC     H4 6421   3.582   0.872   3.962  0.0549 -0.1913 -0.5501
  478EMC     H5 6422   3.721   0.949   3.903  0.1755 -0.7266 -1.9892
  478EMC     H6 6423   3.749   0.761   4.102  3.5782  1.8817  0.4818
  478EMC     H7 6424   3.871   0.780   3.981  0.1873 -1.9620 -2.3827
  478EMC     H8 6425   3.755   0.648   3.977  1.1752 -1.3235  3.1277
  479EMC     C1 6426   0.127   1.927   1.377  0.6120  0.5730  0.6448
  479EMC     C2 6427   4.350   1.888   1.085 -0.5718 -0.4193  0.0677
  479EMC     C3 6428   4.390   1.940   1.314  0.1582 -0.1031  0.3217
  479EMC     O1 6429   0.025   1.987   1.314  0.7096  0.0358  0.7742
  479EMC     O2 6430   4.407   1.971   1.185  0.0877  0.0940 -0.1107
  479EMC     O3 6431   4.358   1.831   1.360 -0.7259 -0.7727  0.1093
  479EMC     H1 6432   0.090   1.865   1.458  0.2773  2.7087  2.1921
  479EMC     H2 6433   0.213   1.988   1.405 -0.7061  2.9263 -0.1123
  479EMC     H3 6434   0.161   1.861   1.297 -1.2261 -0.2788  0.5319
  479EMC     C4 6435   4.436   1.873   0.964  0.1022  0.2881  0.4143
  479EMC     H4 6436   4.259   1.935   1.049  0.4690  1.8180  0.2086
  479EMC     H5 6437   4.326   1.789   1.124  0.6793 -0.9150 -0.3567
  479EMC     H6 6438   4.390   1.817   0.882 -1.1256  1.1142  0.5083
  479EMC     H7 6439   0.040   1.838   0.989  0.4702  0.7466 -0.3755
  479EMC     H8 6440   4.476   1.967   0.925 -1.8134  1.4674  1.1452
  480EMC     C1 6441   0.479   4.178   1.226  0.2134  0.0227  0.5581
  480EMC     C2 6442   0.553   4.379   1.526 -0.4199  0.2428  0.2121
  480EMC     C3 6443   0.648   4.313   1.314 -0.2544 -0.3869  0.4035
  480EMC     O1 6444   0.533   4.305   1.254  0.4780  0.3809  0.0570
  480EMC     O2 6445   0.564   4.391   1.386  0.4479 -0.0696 -0.2413
  480EMC     O3 6446   0.707   4.218   1.355 -0.6478  0.1882 -0.6201
  480EMC     H1 6447   0.467   4.116   1.315 -0.2892 -0.3848  0.2172
  480EMC     H2 6448   0.549   4.129   1.159  0.0919 -1.1100  1.2296
  480EMC     H3 6449   0.381   4.178   1.177  0.7052  3.6562 -0.6965
  480EMC     C4 6450   0.434   4.473   1.568 -0.2674  0.3641 -0.0801
  480EMC     H4 6451   0.654   4.398   1.564  0.3695 -2.6627 -0.1452
  480EMC     H5 6452   0.537   4.276   1.557  1.5973 -0.4749 -0.9202
  480EMC     H6 6453   0.336   4.428   1.582 -1.6260  2.5787 -1.8023
  480EMC     H7 6454   0.413   0.066   1.509 -0.0548 -0.6946 -1.8169
  480EMC     H8 6455   0.453   0.018   1.667  0.7527 -0.8850  0.2762
  481EMC     C1 6456   1.893   3.660   2.613 -0.1067  0.8246  0.7599
  481EMC     C2 6457   2.031   4.002   2.773 -0.1843 -0.0227 -0.0592
  481EMC     C3 6458   1.947   3.890   2.590  0.0251  0.7441 -0.3318
  481EMC     O1 6459   1.860   3.798   2.630  0.6289 -0.2683 -0.0339
  481EMC     O2 6460   1.928   3.940   2.712  0.3230  0.5685 -0.6244
  481EMC     O3 6461   2.058   3.867   2.547  0.2361  0.1759  0.1134
  481EMC     H1 6462   1.987   3.649   2.668  1.1759  0.3732 -1.4063
  481EMC     H2 6463   1.911   3.641   2.507 -1.1779  3.7318 -0.0159
  481EMC     H3 6464   1.820   3.594   2.660 -0.1205 -0.4100 -0.8875
  481EMC     C4 6465   1.979   4.071   2.897  1.1058 -0.6434 -0.1193
  481EMC     H4 6466   2.092   4.070   2.714 -1.0087  1.2065  0.4518
  481EMC     H5 6467   2.103   3.928   2.808 -1.1812 -1.7583 -1.5095
  481EMC     H6 6468   1.939   3.991   2.960  0.5558  0.9257  1.6320
  481EMC     H7 6469   1.894   4.136   2.876 -0.3513 -2.0129  1.2617
  481EMC     H8 6470   2.056   4.123   2.955 -0.4154  1.7368 -0.0657
  482EMC     C1 6471   3.982   1.824   1.213 -0.0485 -0.5172  0.2377
  482EMC     C2 6472   3.833   1.665   1.554  0.2379 -0.5644 -0.0177
  482EMC     C3 6473   3.975   1.828   1.455 -0.5606  0.1051 -0.4161
  482EMC     O1 6474   3.904   1.824   1.338 -0.2505  0.4429  0.4981
  482EMC     O2 6475   3.866   1.765   1.459  0.3762 -0.2389  0.3274
  482EMC     O3 6476   4.086   1.773   1.477 -0.0300  0.2177 -0.2956
  482EMC     H1 6477   4.058   1.747   1.226 -0.8760 -2.1572 -3.3332
  482EMC     H2 6478   4.026   1.923   1.203  0.2861 -0.8179 -1.9046
  482EMC     H3 6479   3.917   1.822   1.125  2.8175  2.3721 -2.1974
  482EMC     C4 6480   3.684   1.690   1.602  0.2440  0.2355  0.0220
  482EMC     H4 6481   3.895   1.670   1.644  2.4850  0.2680 -1.5188
  482EMC     H5 6482   3.855   1.568   1.510  1.4767 -1.3282  2.1179
  482EMC     H6 6483   3.662   1.631   1.691 -0.0352 -0.8505 -0.7567
  482EMC     H7 6484   3.598   1.689   1.535 -0.4581  0.8178  0.8872
  482EMC     H8 6485   3.674   1.792   1.642 -1.0926  0.2185 -0.2140
  483EMC     C1 6486   0.223   1.774   1.757  0.1413  0.0946  0.0686
  483EMC     C2 6487   0.245   2.115   2.002  0.2996 -0.5860 -0.4401
  483EMC     C3 6488   0.258   1.877   1.980 -0.4708  0.5049 -0.1269
  483EMC     O1 6489   0.181   1.836   1.877 -0.0586  0.2186  0.1376
  483EMC     O2 6490   0.183   1.989   1.996 -0.2438  0.6848  0.3556
  483EMC     O3 6491   0.376   1.878   1.964 -0.0451  0.2758  0.0163
  483EMC     H1 6492   0.237   1.863   1.694 -1.7193  1.2941  1.2534
  483EMC     H2 6493   0.140   1.706   1.741  0.0218  0.0299  0.9139
  483EMC     H3 6494   0.310   1.709   1.765 -0.0189 -0.9562 -4.1368
  483EMC     C4 6495   0.137   2.230   2.012 -0.1871  0.3773  0.3247
  483EMC     H4 6496   0.319   2.129   1.922  0.2383  1.4501 -0.2119
  483EMC     H5 6497   0.297   2.123   2.097 -2.3456  1.4317  0.9539
  483EMC     H6 6498   0.069   2.210   2.095  0.1713 -0.1834  0.4895
  483EMC     H7 6499   0.076   2.242   1.922 -1.5217  0.0575  1.1638
  483EMC     H8 6500   0.188   2.323   2.039  1.6204  0.7241 -3.6100
  484EMC     C1 6501   0.202   3.128   3.903  0.4111  0.3219  0.0912
  484EMC     C2 6502   0.185   3.261   3.441 -0.7950  0.3722 -0.4260
  484EMC     C3 6503   0.209   3.154   3.661  0.0982  0.2170 -0.3313
  484EMC     O1 6504   0.226   3.203   3.779 -0.3059  0.0993 -0.2639
  484EMC     O2 6505   0.190   3.262   3.585 -0.1231 -0.4134 -0.7757
  484EMC     O3 6506   0.162   3.044   3.635  0.6109  0.1557 -0.1353
  484EMC     H1 6507   0.098   3.126   3.934 -0.2932 -1.9591 -2.0935
  484EMC     H2 6508   0.253   3.191   3.976 -2.0380  1.6924  0.6928
  484EMC     H3 6509   0.244   3.027   3.898  1.4524  0.7498 -0.0748
  484EMC     C4 6510   0.180   3.400   3.376  0.0690  0.3970  0.7389
  484EMC     H4 6511   0.088   3.217   3.419 -1.7060  1.1641  1.7925
  484EMC     H5 6512   0.265   3.199   3.400  1.6596  2.8118  0.3885
  484EMC     H6 6513   0.189   3.390   3.268 -0.6469  1.7797  0.5253
  484EMC     H7 6514   0.263   3.456   3.419  0.2963  0.2151  0.5378
  484EMC     H8 6515   0.086   3.451   3.397  0.3773  1.4062 -0.2039
  485EMC     C1 6516   2.771   3.098   3.323  0.3678  0.2343 -0.2842
  485EMC     C2 6517   2.996   3.365   3.127 -0.0612 -0.3691  0.6444
  485EMC     C3 6518   2.990   3.163   3.245 -0.0155  0.0209 -0.1398
  485EMC     O1 6519   2.893   3.161   3.345  0.3435  0.4882 -0.0542
  485EMC     O2 6520   2.985   3.296   3.245 -0.1408 -0.6319  0.3007
  485EMC     O3 6521   2.978   3.092   3.147 -0.3739  0.4942  0.0804
  485EMC     H1 6522   2.747   3.108   3.217  1.1820 -1.3631 -0.6535
  485EMC     H2 6523   2.692   3.120   3.394  1.9094 -0.7902  1.8773
  485EMC     H3 6524   2.800   2.995   3.341  1.2823  0.8559  2.1369
  485EMC     C4 6525   3.082   3.489   3.156  0.0815 -0.8737  0.1751
  485EMC     H4 6526   2.901   3.394   3.082  0.5578 -2.0677 -2.0105
  485EMC     H5 6527   3.046   3.308   3.048 -0.0006  1.3555 -0.6244
  485EMC     H6 6528   3.093   3.552   3.068 -1.9239  2.4544  2.0849
  485EMC     H7 6529   3.185   3.460   3.179 -0.8004 -3.6334  1.1255
  485EMC     H8 6530   3.033   3.549   3.233 -0.3643 -2.4797  1.2020
  486EMC     C1 6531   3.808   3.602   0.343 -0.1921  0.2933 -0.3673
  486EMC     C2 6532   3.753   3.451   4.402  0.3094 -1.0212 -0.2521
  486EMC     C3 6533   3.802   3.550   0.121  0.3445  0.0545 -0.3260
  486EMC     O1 6534   3.822   3.506   0.237 -0.7563 -0.0139  0.0486
  486EMC     O2 6535   3.821   3.449   0.035  0.7645 -0.5576 -0.3064
  486EMC     O3 6536   3.762   3.664   0.089  0.0122 -0.0736 -0.5021
  486EMC     H1 6537   3.895   3.666   0.357 -1.7449  1.8310  3.3896
  486EMC     H2 6538   3.789   3.557   0.440 -0.5075  1.0822 -0.0531
  486EMC     H3 6539   3.720   3.664   0.326  0.8672  1.9998  0.1368
  486EMC     C4 6540   3.846   3.403   4.292  0.3002  0.4814  0.4770
  486EMC     H4 6541   3.690   3.539   4.385  0.7947 -0.6806 -0.3062
  486EMC     H5 6542   3.674   3.378   4.422  0.1878 -0.6706  0.6189
  486EMC     H6 6543   3.941   3.455   4.278 -0.1158  1.5425  1.4931
  486EMC     H7 6544   3.793   3.400   4.197  1.7712  0.6459 -0.3748
  486EMC     H8 6545   3.876   3.302   4.320  0.2478  0.2793 -0.1834
  487EMC     C1 6546   1.265   2.367   1.988  0.0142 -0.5287 -0.0324
  487EMC     C2 6547   1.462   2.373   1.632 -0.3926  0.8009  0.2837
  487EMC     C3 6548   1.426   2.279   1.835  0.2910  0.2606 -0.0957
  487EMC     O1 6549   1.349   2.376   1.871 -0.5971  0.1764 -0.1018
  487EMC     O2 6550   1.377   2.299   1.714  0.0630  0.4980  0.3968
  487EMC     O3 6551   1.425   2.165   1.885  0.0901 -0.9223 -0.9557
  487EMC     H1 6552   1.183   2.439   1.992  0.8677  0.4160  2.8806
  487EMC     H2 6553   1.333   2.389   2.070  0.0497  0.4079 -0.3078
  487EMC     H3 6554   1.216   2.269   1.993 -0.7577 -0.6927 -5.2570
  487EMC     C4 6555   1.414   2.399   1.494  0.0356 -0.2290  0.1568
  487EMC     H4 6556   1.562   2.333   1.614 -0.5547  0.5263  0.0031
  487EMC     H5 6557   1.491   2.470   1.673 -0.5446  0.0327  2.3619
  487EMC     H6 6558   1.491   2.449   1.436 -0.5347  0.3494 -0.1158
  487EMC     H7 6559   1.330   2.467   1.508  0.2360 -0.5475  3.5121
  487EMC     H8 6560   1.393   2.304   1.443  1.8318 -0.6280  0.1034
  488EMC     C1 6561   1.575   2.134   0.718  0.1608 -0.1055  0.2499
  488EMC     C2 6562   1.603   1.767   0.660 -0.7145  0.2930 -0.2384
  488EMC     C3 6563   1.657   1.937   0.823 -0.0728  0.4470 -0.7430
  488EMC     O1 6564   1.680   2.047   0.747  0.2027 -0.6954  0.2158
  488EMC     O2 6565   1.681   1.875   0.710  0.5802  0.3894  0.1188
  488EMC     O3 6566   1.558   1.921   0.891  0.4555  0.4540 -0.1712
  488EMC     H1 6567   1.538   2.112   0.618 -2.9597  2.1610  0.7479
  488EMC     H2 6568   1.605   2.237   0.700  1.0311 -0.1844  1.1705
  488EMC     H3 6569   1.490   2.138   0.786 -0.4737 -0.6537 -0.4929
  488EMC     C4 6570   1.475   1.787   0.577  0.2073 -0.0954  0.0576
  488EMC     H4 6571   1.575   1.708   0.747 -1.0380 -1.8870 -1.7518
  488EMC     H5 6572   1.659   1.690   0.607 -2.1305 -0.6468 -0.4167
  488EMC     H6 6573   1.391   1.823   0.637 -0.3930  0.8522 -1.2756
  488EMC     H7 6574   1.438   1.689   0.546 -2.2357  0.9386 -0.5898
  488EMC     H8 6575   1.498   1.846   0.488 -0.0777 -0.0506  0.0126
  489EMC     C1 6576   4.130   1.674   3.419 -0.4458 -0.7687 -0.1978
  489EMC     C2 6577   3.949   1.935   3.247 -0.4599  0.1371 -0.3690
  489EMC     C3 6578   4.065   1.889   3.455 -0.0706  0.2913 -0.9755
  489EMC     O1 6579   4.041   1.763   3.474 -0.2588  0.2018 -0.8963
  489EMC     O2 6580   3.951   1.877   3.382 -0.5222 -0.6243 -0.3692
  489EMC     O3 6581   4.170   1.924   3.403 -0.6560 -0.2673  0.3577
  489EMC     H1 6582   4.222   1.680   3.477 -0.9417 -0.0811  0.5461
  489EMC     H2 6583   4.167   1.703   3.320 -0.9951  1.5299  0.2068
  489EMC     H3 6584   4.104   1.572   3.444  1.7212 -1.1504  0.6972
  489EMC     C4 6585   3.811   1.958   3.202  0.1925 -0.8604  0.0955
  489EMC     H4 6586   3.988   1.868   3.171 -0.6929 -0.9468  0.4393
  489EMC     H5 6587   4.011   2.025   3.235 -1.8773  1.9290  3.6592
  489EMC     H6 6588   3.808   1.988   3.097  3.7571 -4.4303 -1.3183
  489EMC     H7 6589   3.756   2.035   3.257  0.5186 -2.5306  2.9530
  489EMC     H8 6590   3.743   1.876   3.225  1.0946 -1.8471 -0.6234
  490EMC     C1 6591   2.146   3.790   3.992 -0.5746  0.5643 -0.5475
  490EMC     C2 6592   1.798   3.873   3.861 -0.1610  0.5168 -0.4498
  490EMC     C3 6593   2.014   3.970   3.916 -0.2355  0.0522  0.2088
  490EMC     O1 6594   2.032   3.873   4.006 -0.1061 -0.4479  0.6330
  490EMC     O2 6595   1.890   3.932   3.957  0.1272 -0.1861 -0.1792
  490EMC     O3 6596   2.057   3.962   3.798  0.2041 -0.4412 -0.2990
  490EMC     H1 6597   2.160   3.741   3.895  0.3570 -1.3588  0.5038
  490EMC     H2 6598   2.147   3.722   4.076 -1.8387  2.7917  1.3852
  490EMC     H3 6599   2.235   3.852   4.005  0.6964 -0.4677 -3.4520
  490EMC     C4 6600   1.663   3.934   3.878 -0.6198 -0.7063  0.1993
  490EMC     H4 6601   1.784   3.768   3.887 -1.1602  1.2461  2.1674
  490EMC     H5 6602   1.849   3.868   3.764  5.7960 -0.0401  2.2534
  490EMC     H6 6603   1.670   4.028   3.822 -0.6128 -0.6412  0.3086
  490EMC     H7 6604   1.637   3.958   3.981  1.3326 -0.1677  0.5942
  490EMC     H8 6605   1.594   3.867   3.826 -1.9328  0.7486 -0.0179
  491EMC     C1 6606   3.883   1.640   4.427  0.0966 -0.2334 -0.7363
  491EMC     C2 6607   3.582   1.983   4.424  0.7418 -0.8707 -0.2515
  491EMC     C3 6608   3.766   1.852   4.395 -0.7965 -0.4283 -0.6030
  491EMC     O1 6609   3.780   1.740   4.463 -0.1229 -0.6176 -0.6523
  491EMC     O2 6610   3.634   1.861   4.383 -0.6226  0.6031 -0.5377
  491EMC     O3 6611   3.847   1.881   4.307 -0.4274 -0.0339  0.2661
  491EMC     H1 6612   3.890   1.566   0.010 -1.9297 -0.4852 -0.7472
  491EMC     H2 6613   3.983   1.685   4.423 -0.0520  0.6592  2.8514
  491EMC     H3 6614   3.852   1.590   4.335  3.1645 -1.3703 -1.3016
  491EMC     C4 6615   3.435   1.979   4.389  0.7815  0.2429  0.0662
  491EMC     H4 6616   3.638   2.058   4.368 -0.1819  0.9807  1.2202
  491EMC     H5 6617   3.593   1.989   0.036  1.5226 -0.8836 -0.3240
  491EMC     H6 6618   3.370   1.902   4.429  1.0126 -0.9155 -1.6895
  491EMC     H7 6619   3.414   1.987   4.282  1.9880 -2.3432 -0.4416
  491EMC     H8 6620   3.383   2.065   4.433 -0.7053 -0.2630 -0.6628
  492EMC     C1 6621   2.000   0.146   4.441 -0.5594  0.3035 -0.6842
  492EMC     C2 6622   1.988   0.008   0.296  0.5119  0.6135 -0.2472
  492EMC     C3 6623   2.123   0.125   0.145 -0.2749 -0.3478 -0.4856
  492EMC     O1 6624   2.014   0.167   0.088  0.0265  0.4819 -0.3939
  492EMC     O2 6625   2.028   0.132   0.241 -0.3495 -0.1545 -0.7820
  492EMC     O3 6626   2.182   0.018   0.120  0.4389 -0.6780  0.3274
  492EMC     H1 6627   1.894   0.148   4.413 -1.0447 -3.1816  0.4272
  492EMC     H2 6628   2.028   0.045   4.412  1.3214  1.2767 -2.5556
  492EMC     H3 6629   2.065   0.207   4.379  0.8933 -0.2879  0.2131
  492EMC     C4 6630   1.857   0.022   0.379  0.1236 -0.2558 -0.5816
  492EMC     H4 6631   2.064   4.458   0.358 -0.7832 -0.4533  0.6205
  492EMC     H5 6632   1.968   4.432   0.217 -0.6718  0.6595 -0.0182
  492EMC     H6 6633   1.826   4.438   0.446  0.3196 -0.3721 -0.6280
  492EMC     H7 6634   1.781   0.036   0.303  0.7855  0.6360 -1.0969
  492EMC     H8 6635   1.853   0.112   0.441 -2.8338 -1.2274  0.7766
  493EMC     C1 6636   1.774   1.855   0.364  0.1388 -0.0807 -0.8502
  493EMC     C2 6637   1.905   2.198   0.206 -0.4133 -0.3898  0.1869
  493EMC     C3 6638   1.810   1.974   0.172  0.1954 -0.2592 -0.0974
  493EMC     O1 6639   1.726   1.945   0.271  0.0188 -0.2297  0.0320
  493EMC     O2 6640   1.884   2.062   0.247  0.0018  0.4346  0.2292
  493EMC     O3 6641   1.774   2.001   0.055  0.3718  0.3806 -0.9836
  493EMC     H1 6642   1.687   1.802   0.403 -0.3857  1.3474 -0.0146
  493EMC     H2 6643   1.832   1.891   0.449 -2.7536 -1.2440  1.8446
  493EMC     H3 6644   1.847   1.790   0.316 -2.5339 -2.2160 -2.3308
  493EMC     C4 6645   1.952   2.258   0.339  0.1395 -0.0333  0.2696
  493EMC     H4 6646   1.817   2.254   0.173  0.0028  1.4732  2.0273
  493EMC     H5 6647   1.989   2.210   0.137 -0.3261  0.9659  0.5057
  493EMC     H6 6648   1.876   2.229   0.412 -0.5833 -3.0577 -1.4843
  493EMC     H7 6649   1.951   2.367   0.333  1.4290 -0.0359 -0.3082
  493EMC     H8 6650   2.054   2.239   0.370 -0.3128 -1.0962  1.1601
  494EMC     C1 6651   1.562   3.637   2.998  0.4362  0.6857  0.3676
  494EMC     C2 6652   1.609   4.032   2.915 -0.3806 -0.3748 -0.6358
  494EMC     C3 6653   1.629   3.810   2.832  0.2782 -0.0955 -0.1577
  494EMC     O1 6654   1.659   3.733   2.944  0.1129  0.1490  0.5126
  494EMC     O2 6655   1.671   3.902   2.910 -0.4353 -0.3808  0.0833
  494EMC     O3 6656   1.521   3.820   2.767  0.1162  0.6812 -0.0578
  494EMC     H1 6657   1.527   3.575   2.915 -1.0507 -0.8190  2.0630
  494EMC     H2 6658   1.481   3.684   3.053 -1.3142 -0.1324 -1.3940
  494EMC     H3 6659   1.614   3.565   3.061  0.3127 -0.1031 -0.3983
  494EMC     C4 6660   1.664   4.114   3.037  0.0537 -0.1615 -0.4636
  494EMC     H4 6661   1.503   4.016   2.933 -0.6766  2.9207  1.2522
  494EMC     H5 6662   1.624   4.083   2.820  0.5030  0.4661 -0.0606
  494EMC     H6 6663   1.770   4.093   3.050  0.3489  1.5604  0.1825
  494EMC     H7 6664   1.622   4.092   3.135 -0.3082 -0.3053 -0.6507
  494EMC     H8 6665   1.655   4.221   3.018 -0.1066 -0.1002 -0.0548
  495EMC     C1 6666   2.518   2.227   2.648  0.5357  0.3734 -0.2773
  495EMC     C2 6667   2.875   2.088   2.526  0.0655 -0.1809  0.1823
  495EMC     C3 6668   2.729   2.140   2.698  0.6159  0.2459 -0.5901
  495EMC     O1 6669   2.649   2.192   2.613 -0.1986 -0.5228  0.1312
  495EMC     O2 6670   2.850   2.164   2.643  0.1529 -0.4280  0.2920
  495EMC     O3 6671   2.709   2.160   2.821  0.0757  0.1114 -0.2700
  495EMC     H1 6672   2.447   2.188   2.575 -2.1822  2.9748  0.7959
  495EMC     H2 6673   2.498   2.333   2.662  1.4235  0.6472 -0.9945
  495EMC     H3 6674   2.484   2.174   2.737 -0.7360 -0.7684 -1.3861
  495EMC     C4 6675   2.983   2.150   2.429  0.0319 -0.3373 -0.1575
  495EMC     H4 6676   2.778   2.075   2.478 -0.5116  1.1865  0.9534
  495EMC     H5 6677   2.919   1.994   2.560  0.5016 -0.1844 -0.3596
  495EMC     H6 6678   2.960   2.249   2.390  0.7876  0.1361  0.5521
  495EMC     H7 6679   2.994   2.090   2.339 -2.4840  0.4645 -1.0715
  495EMC     H8 6680   3.082   2.147   2.476 -0.2781 -3.7290  0.5508
  496EMC     C1 6681   0.232   2.692   2.803  0.5498  0.0732 -0.9911
  496EMC     C2 6682   4.440   2.366   2.682  0.5349 -0.6655  1.0865
  496EMC     C3 6683   0.109   2.531   2.685 -0.4693 -0.2859  0.2226
  496EMC     O1 6684   0.118   2.653   2.725  0.3002 -1.0381  0.2316
  496EMC     O2 6685   4.473   2.504   2.688  0.6817 -0.1712  0.1856
  496EMC     O3 6686   0.198   2.448   2.695 -0.1019 -0.0402 -0.3852
  496EMC     H1 6687   0.320   2.663   2.746  2.2223  0.3057  1.3439
  496EMC     H2 6688   0.246   2.633   2.894 -1.4423  0.4157 -0.3950
  496EMC     H3 6689   0.243   2.798   2.829 -0.4080  0.8213 -3.3526
  496EMC     C4 6690   4.288   2.336   2.704 -0.8727  0.4506  1.2249
  496EMC     H4 6691   4.477   2.313   2.770  0.7933  0.5436  1.7221
  496EMC     H5 6692   4.474   2.328   2.585  0.8146  2.3209 -0.0775
  496EMC     H6 6693   4.237   2.387   2.786 -2.5187 -0.0379  0.5596
  496EMC     H7 6694   4.286   2.231   2.735  2.5034  0.4746  1.8813
  496EMC     H8 6695   4.227   2.333   2.613  0.6540 -0.8868  0.1898
  497EMC     C1 6696   3.442   4.464   3.411 -0.0906  0.2928 -0.1045
  497EMC     C2 6697   3.217   4.152   3.217 -0.2334  0.3990 -0.0473
  497EMC     C3 6698   3.354   4.258   3.373 -0.4333 -0.8573  0.1400
  497EMC     O1 6699   3.430   4.352   3.326  0.1388  0.4892 -0.5886
  497EMC     O2 6700   3.345   4.202   3.256  0.1213  0.3459  0.0227
  497EMC     O3 6701   3.263   4.280   3.455  0.3377  0.2386  0.6100
  497EMC     H1 6702   3.354   0.031   3.410  3.2366  5.5867 -0.7362
  497EMC     H2 6703   3.513   0.045   3.381 -0.0614  0.8971  1.3925
  497EMC     H3 6704   3.471   4.442   3.514  1.4063  2.0695 -0.0744
  497EMC     C4 6705   3.224   4.093   3.074  0.2365  0.1615 -0.6315
  497EMC     H4 6706   3.135   4.224   3.221 -2.3430 -1.7991 -1.2880
  497EMC     H5 6707   3.184   4.073   3.284 -0.6947 -0.2600 -1.0220
  497EMC     H6 6708   3.268   4.171   3.012  0.5381  1.5566  1.2460
  497EMC     H7 6709   3.124   4.073   3.034 -0.2764 -0.0657  0.6910
  497EMC     H8 6710   3.275   3.998   3.056 -0.1948  0.1850 -2.1108
  498EMC     C1 6711   1.627   1.493   1.092 -0.8141 -0.5401 -0.4143
  498EMC     C2 6712   1.255   1.605   1.216  0.2028 -0.7031 -0.0636
  498EMC     C3 6713   1.469   1.670   1.143 -1.1025 -0.2142  0.4440
  498EMC     O1 6714   1.601   1.625   1.140  0.4119  0.1339 -0.4729
  498EMC     O2 6715   1.386   1.573   1.178  0.3474  0.2410 -0.1450
  498EMC     O3 6716   1.442   1.789   1.155 -0.1613 -0.4088  0.3084
  498EMC     H1 6717   1.615   1.490   0.984  2.3039  0.5656 -0.9049
  498EMC     H2 6718   1.580   1.405   1.136  1.3637 -1.0822  1.0063
  498EMC     H3 6719   1.735   1.476   1.093 -0.9113 -1.3688 -1.6470
  498EMC     C4 6720   1.148   1.486   1.199 -0.5807  0.6770  0.7129
  498EMC     H4 6721   1.207   1.687   1.163  0.6450  0.4808  1.3257
  498EMC     H5 6722   1.272   1.622   1.322  0.8894 -1.4675 -0.0333
  498EMC     H6 6723   1.052   1.499   1.249 -0.2912  0.1122  1.4356
  498EMC     H7 6724   1.185   1.392   1.240 -2.5884 -1.5409 -2.1583
  498EMC     H8 6725   1.125   1.468   1.094 -0.8827  1.1296  0.6956
  499EMC     C1 6726   1.217   2.974   3.035  0.1209 -0.8750  0.0091
  499EMC     C2 6727   1.467   2.714   2.884 -0.1203  0.4157 -0.5739
  499EMC     C3 6728   1.234   2.757   2.939 -0.2479 -0.0508 -0.6850
  499EMC     O1 6729   1.231   2.835   3.047  0.6181 -0.3099 -0.3515
  499EMC     O2 6730   1.351   2.711   2.969 -0.5154  0.1568  0.4486
  499EMC     O3 6731   1.197   2.787   2.828  0.7206 -0.4725 -0.4237
  499EMC     H1 6732   1.118   3.012   3.061  0.3444 -0.5593  0.4081
  499EMC     H2 6733   1.241   3.006   2.934  0.5650  1.1992  0.7272
  499EMC     H3 6734   1.282   3.026   3.105 -0.6274 -1.4247  1.1517
  499EMC     C4 6735   1.590   2.642   2.933 -0.4869  0.1428  0.1085
  499EMC     H4 6736   1.507   2.814   2.872 -1.3639  0.7457 -2.2892
  499EMC     H5 6737   1.446   2.672   2.786 -0.0204  2.6242 -1.5990
  499EMC     H6 6738   1.621   2.685   3.029  3.2394 -0.9178 -0.4623
  499EMC     H7 6739   1.671   2.636   2.861 -1.5851 -0.9424 -1.0941
  499EMC     H8 6740   1.562   2.539   2.954 -1.4243  0.0274 -1.5180
  500EMC     C1 6741   0.509   0.802   0.584 -0.7993 -0.5233  0.3671
  500EMC     C2 6742   0.539   0.420   0.639 -0.3962 -0.0993 -0.5746
  500EMC     C3 6743   0.512   0.638   0.748 -0.3296  0.6782 -0.0096
  500EMC     O1 6744   0.576   0.705   0.660 -0.4350  0.1323 -0.0532
  500EMC     O2 6745   0.595   0.540   0.693  0.4434 -1.2152 -0.0444
  500EMC     O3 6746   0.387   0.630   0.754 -0.0243 -0.3765  0.1181
  500EMC     H1 6747   0.429   0.849   0.640  0.0553  0.9557  0.3956
  500EMC     H2 6748   0.473   0.762   0.489  0.7935  3.5186 -2.1662
  500EMC     H3 6749   0.579   0.884   0.568 -0.0769 -1.4763 -1.6380
  500EMC     C4 6750   0.636   0.350   0.553  0.4419  0.1077  0.1509
  500EMC     H4 6751   0.454   0.463   0.585  0.1309 -0.9294 -2.1084
  500EMC     H5 6752   0.492   0.348   0.706 -1.3869  0.1765 -0.9509
  500EMC     H6 6753   0.691   0.414   0.484  0.7503  0.6795  0.9212
  500EMC     H7 6754   0.578   0.271   0.504 -1.2482  0.0405  2.1105
  500EMC     H8 6755   0.716   0.306   0.611 -0.7022 -0.6467  1.1955
  501EMC     C1 6756   1.301   1.551   2.542  0.6387  0.0551 -0.4564
  501EMC     C2 6757   1.489   1.872   2.276  0.0586 -0.5831 -0.4789
  501EMC     C3 6758   1.323   1.739   2.403  0.3077 -0.5378  0.2348
  501EMC     O1 6759   1.328   1.603   2.407  0.4160 -0.6160 -0.3096
  501EMC     O2 6760   1.393   1.761   2.293  0.0981 -0.1013  0.0763
  501EMC     O3 6761   1.312   1.815   2.501  0.3775 -0.1196 -0.3919
  501EMC     H1 6762   1.295   1.444   2.561 -1.4118  0.3604  0.9683
  501EMC     H2 6763   1.203   1.593   2.567  0.6990  0.2774 -0.5836
  501EMC     H3 6764   1.377   1.594   2.608  0.7204 -0.4667 -0.2082
  501EMC     C4 6765   1.414   2.002   2.270  0.4459  0.6957  0.2106
  501EMC     H4 6766   1.556   1.848   2.193 -1.6172 -2.3957 -1.3937
  501EMC     H5 6767   1.561   1.865   2.358  1.3584 -1.4406 -1.6342
  501EMC     H6 6768   1.343   2.005   2.188 -1.4889 -0.2700  1.7619
  501EMC     H7 6769   1.486   2.083   2.261  1.2248  0.0711  0.6536
  501EMC     H8 6770   1.361   2.018   2.364  2.2530  1.7249  1.1202
  502EMC     C1 6771   1.456   4.169   1.725 -0.2799 -0.2651  0.3077
  502EMC     C2 6772   1.393   0.050   1.767 -0.3413  0.2690 -0.2165
  502EMC     C3 6773   1.441   4.349   1.899 -0.8553  0.3819  0.6484
  502EMC     O1 6774   1.515   4.287   1.791  0.5117 -0.3927  0.0417
  502EMC     O2 6775   1.485   4.441   1.814  0.4617  0.3303 -0.0430
  502EMC     O3 6776   1.322   4.322   1.919  0.3352 -0.1240  0.3796
  502EMC     H1 6777   1.477   4.090   1.797  0.9839  1.7122  2.2464
  502EMC     H2 6778   1.512   4.141   1.636  0.4412  0.4472  0.5225
  502EMC     H3 6779   1.352   4.186   1.698 -0.9717  1.2244  3.4262
  502EMC     C4 6780   1.450   0.148   1.660 -0.4161  0.7953 -0.6207
  502EMC     H4 6781   1.357   0.110   1.851 -1.9356 -1.2695  0.2747
  502EMC     H5 6782   1.310   4.484   1.732  0.2544 -1.0113  0.5622
  502EMC     H6 6783   1.444   0.103   1.561 -0.2639  1.0587 -0.7479
  502EMC     H7 6784   1.550   0.181   1.685 -0.6982  1.3542 -0.2052
  502EMC     H8 6785   1.388   0.238   1.663 -2.2753 -0.3849 -1.4286
  503EMC     C1 6786   3.692   0.184   2.441 -0.4546  0.7579 -0.1434
  503EMC     C2 6787   3.463   0.350   2.772  0.5120 -0.0698 -0.0348
  503EMC     C3 6788   3.657   0.271   2.660  0.2667 -0.0315  0.1597
  503EMC     O1 6789   3.677   0.296   2.527 -0.2712  0.3239  0.6354
  503EMC     O2 6790   3.562   0.365   2.666  0.1206  0.0657 -0.8388
  503EMC     O3 6791   3.643   0.158   2.703 -0.2818 -0.1551  0.3450
  503EMC     H1 6792   3.631   0.098   2.469 -0.3174  0.6078 -0.2968
  503EMC     H2 6793   3.799   0.161   2.442 -0.9033 -1.7854 -1.7417
  503EMC     H3 6794   3.675   0.225   2.341  0.8244  2.1158  0.1560
  503EMC     C4 6795   3.398   0.482   2.818  0.4911  0.2368  0.0000
  503EMC     H4 6796   3.496   0.289   2.856 -1.5624 -0.3167  0.6495
  503EMC     H5 6797   3.378   0.300   2.726  1.4869 -1.5260 -0.3204
  503EMC     H6 6798   3.467   0.547   2.871  1.1721 -0.5219  0.0702
  503EMC     H7 6799   3.315   0.467   2.888  1.2630  1.3036  1.1921
  503EMC     H8 6800   3.369   0.544   2.733 -0.7030  1.9150  1.5661
  504EMC     C1 6801   4.357   3.606   0.450  0.0658  0.2276 -0.1337
  504EMC     C2 6802   0.176   3.332   0.325 -0.1702 -0.0619  0.1059
  504EMC     C3 6803   0.082   3.529   0.410  0.0220 -0.6653 -0.5006
  504EMC     O1 6804   4.474   3.529   0.487  0.2036 -0.1074 -0.5565
  504EMC     O2 6805   0.107   3.398   0.427 -0.3931  0.2141 -0.0776
  504EMC     O3 6806   0.093   3.594   0.301 -1.0319  0.3643 -0.1996
  504EMC     H1 6807   4.394   3.708   0.452 -0.6037  0.4611  1.9897
  504EMC     H2 6808   4.285   3.596   0.531 -0.1086 -1.0768 -0.4243
  504EMC     H3 6809   4.313   3.569   0.357  1.5680 -1.0787 -0.3700
  504EMC     C4 6810   0.216   3.187   0.363 -0.0432  0.3242 -0.1169
  504EMC     H4 6811   0.268   3.384   0.300 -0.8117  0.8846 -0.3445
  504EMC     H5 6812   0.112   3.331   0.237  1.8349  0.7379 -1.4220
  504EMC     H6 6813   0.137   3.135   0.418  0.4584 -2.1408 -1.5792
  504EMC     H7 6814   0.303   3.188   0.428 -0.1927 -1.5136  0.1835
  504EMC     H8 6815   0.246   3.128   0.276 -1.3301 -1.2821  0.4763
  505EMC     C1 6816   0.945   0.847   1.838  0.1706  0.2383  0.8399
  505EMC     C2 6817   0.990   0.436   1.771  0.3782  0.2983 -0.2920
  505EMC     C3 6818   0.868   0.629   1.826 -0.0809 -0.4627 -0.1533
  505EMC     O1 6819   0.942   0.714   1.879 -0.1539  0.6219 -0.5447
  505EMC     O2 6820   0.968   0.545   1.858 -0.5617 -0.3105 -0.7287
  505EMC     O3 6821   0.828   0.648   1.710  0.0719  0.0893  0.0609
  505EMC     H1 6822   0.991   0.913   1.911  0.2018  0.8917  0.2335
  505EMC     H2 6823   0.846   0.886   1.815 -0.0164 -0.7585 -0.1475
  505EMC     H3 6824   0.979   0.858   1.735  0.7229  1.2399  1.1185
  505EMC     C4 6825   1.136   0.403   1.751  0.4598 -0.0761 -0.0891
  505EMC     H4 6826   0.947   0.445   1.671 -1.5642  0.2101  0.4895
  505EMC     H5 6827   0.946   0.342   1.804 -3.0847  1.6777 -0.5766
  505EMC     H6 6828   1.190   0.480   1.698  0.3983  0.8930  1.2089
  505EMC     H7 6829   1.150   0.313   1.691 -0.3400 -0.2122 -0.0871
  505EMC     H8 6830   1.188   0.395   1.847  4.9083 -0.0545 -2.2475
  506EMC     C1 6831   3.901   0.721   4.297  0.0894 -0.5275 -0.8514
  506EMC     C2 6832   3.527   0.929   4.447  0.1509 -0.7706 -0.6362
  506EMC     C3 6833   3.728   0.801   4.439 -0.3901 -0.3681  0.0274
  506EMC     O1 6834   3.771   0.715   4.354 -0.0314  0.1987 -0.1103
  506EMC     O2 6835   3.594   0.807   4.424 -0.0513 -0.1241  0.0390
  506EMC     O3 6836   3.797   0.896   4.482 -0.0212  0.2455 -0.0917
  506EMC     H1 6837   3.918   0.824   4.269 -1.8103  0.1514  0.3440
  506EMC     H2 6838   3.912   0.659   4.208 -0.3135  1.1222 -2.0988
  506EMC     H3 6839   3.981   0.698   4.369 -0.8086 -0.4840  0.1891
  506EMC     C4 6840   3.385   0.911   4.415  0.2479  0.3745 -0.2382
  506EMC     H4 6841   3.566   1.006   4.381  2.7616 -0.5809  0.9975
  506EMC     H5 6842   3.529   0.975   0.050 -3.0992 -1.1157 -0.2880
  506EMC     H6 6843   3.332   1.005   4.405  2.5457  1.6894 -1.0244
  506EMC     H7 6844   3.348   0.872   0.013  1.1872 -0.0215 -0.0125
  506EMC     H8 6845   3.370   0.861   4.319 -2.3310  0.8435 -0.1328
  507EMC     C1 6846   2.036   0.335   0.463  0.3216 -0.0054 -0.4502
  507EMC     C2 6847   1.687   0.288   0.642 -0.5064 -0.1900  0.2487
  507EMC     C3 6848   1.865   0.440   0.598  0.1144 -1.1518 -0.0561
  507EMC     O1 6849   1.929   0.327   0.554  0.3323  0.0033 -0.0472
  507EMC     O2 6850   1.745   0.397   0.577  0.0180 -0.0009  0.0928
  507EMC     O3 6851   1.898   0.556   0.566 -0.0241 -0.0657 -0.3160
  507EMC     H1 6852   1.994   0.352   0.364 -1.3411 -0.4548  0.1568
  507EMC     H2 6853   2.074   0.232   0.469  2.5757  0.8505  1.2138
  507EMC     H3 6854   2.103   0.412   0.500 -0.0597  0.1458 -0.0763
  507EMC     C4 6855   1.627   0.335   0.772 -0.0410  0.6424 -0.0385
  507EMC     H4 6856   1.749   0.200   0.664 -0.1340  0.3582  1.5012
  507EMC     H5 6857   1.619   0.249   0.566 -0.2611 -2.3337  1.0591
  507EMC     H6 6858   1.593   0.250   0.831  3.1000  0.7834  2.1916
  507EMC     H7 6859   1.542   0.397   0.742  0.7499  3.2396  2.6254
  507EMC     H8 6860   1.700   0.400   0.820 -0.5629  1.3732 -0.2228
  508EMC     C1 6861   3.285   3.048   0.917 -0.9151  0.7044 -0.0410
  508EMC     C2 6862   3.396   2.667   0.738  0.2702  0.2527  0.6884
  508EMC     C3 6863   3.349   2.807   0.922  0.1718  0.7420 -0.4382
  508EMC     O1 6864   3.381   2.941   0.918  0.4633 -1.0550  0.6177
  508EMC     O2 6865   3.438   2.775   0.817 -0.2092  0.8963 -0.4954
  508EMC     O3 6866   3.231   2.768   0.947 -0.1415  0.0276 -0.6197
  508EMC     H1 6867   3.354   3.132   0.902 -0.9609  1.2888  2.5908
  508EMC     H2 6868   3.234   3.060   1.012 -1.1437 -1.8071  0.2181
  508EMC     H3 6869   3.218   3.027   0.833 -0.8774 -2.0974  0.5478
  508EMC     C4 6870   3.487   2.641   0.618 -0.2606 -0.5453 -0.3647
  508EMC     H4 6871   3.295   2.689   0.703  1.0888  1.0417 -1.3734
  508EMC     H5 6872   3.386   2.575   0.795  1.0195 -1.4868 -1.7857
  508EMC     H6 6873   3.442   2.559   0.563 -1.3458  0.0292 -0.3763
  508EMC     H7 6874   3.584   2.618   0.662  0.0605  2.1026  0.4903
  508EMC     H8 6875   3.489   2.733   0.560 -0.0705 -0.4953 -0.2772
  509EMC     C1 6876   4.489   3.629   2.461  0.2318 -0.0404  0.4513
  509EMC     C2 6877   0.018   3.473   2.856  0.8635  0.3546 -0.4701
  509EMC     C3 6878   0.069   3.636   2.686 -0.3051 -0.5462 -0.7365
  509EMC     O1 6879   4.472   3.674   2.598  0.3535  0.3804 -0.0418
  509EMC     O2 6880   4.477   3.574   2.776 -0.1453 -0.0538 -0.2370
  509EMC     O3 6881   0.182   3.592   2.660  0.4162 -0.6892  0.0823
  509EMC     H1 6882   0.059   3.699   2.408  0.3377  1.5890  2.5951
  509EMC     H2 6883   4.401   3.619   2.398  1.0601 -0.9062 -0.6033
  509EMC     H3 6884   0.045   3.534   2.462  0.1270 -0.0936  1.2702
  509EMC     C4 6885   4.421   3.475   2.974  0.2982 -0.2196  0.6690
  509EMC     H4 6886   0.120   3.485   2.894  1.6114 -1.7090 -1.6487
  509EMC     H5 6887   0.032   3.375   2.810  1.0611  0.7565 -1.2832
  509EMC     H6 6888   4.323   3.509   2.942  1.1140  1.3071 -0.3606
  509EMC     H7 6889   4.461   3.540   3.053 -3.3757 -0.0648  2.6060
  509EMC     H8 6890   4.411   3.376   3.018 -0.8993 -1.3419 -1.9191
  510EMC     C1 6891   3.789   4.305   1.711 -0.1128 -0.6603  0.7835
  510EMC     C2 6892   3.488   4.110   1.693  0.3978  0.0897  0.0208
  510EMC     C3 6893   3.604   4.242   1.848  0.0486 -0.0901  0.5878
  510EMC     O1 6894   3.730   4.210   1.800  0.0769 -0.2887 -0.1782
  510EMC     O2 6895   3.580   4.119   1.798  0.3107 -0.2148  0.1955
  510EMC     O3 6896   3.543   4.342   1.815  0.1576  0.1551  0.1114
  510EMC     H1 6897   3.721   4.363   1.649  1.9065  3.5449  2.1650
  510EMC     H2 6898   3.873   4.265   1.655  0.4206 -0.1641  1.2138
  510EMC     H3 6899   3.836   4.379   1.776 -3.1048  1.3466  0.8777
  510EMC     C4 6900   3.450   3.971   1.658 -0.0172 -0.3075 -0.2478
  510EMC     H4 6901   3.539   4.149   1.606  0.4813  0.5605  0.2808
  510EMC     H5 6902   3.399   4.172   1.707 -3.4211 -4.4539 -1.1881
  510EMC     H6 6903   3.416   3.919   1.748 -2.0428  1.4129  0.0597
  510EMC     H7 6904   3.534   3.912   1.623 -1.3804 -2.2770 -0.3693
  510EMC     H8 6905   3.370   3.962   1.584  0.0929 -0.9869 -0.2898
  511EMC     C1 6906   3.374   1.343   2.529 -0.6597  0.2009  0.4436
  511EMC     C2 6907   3.134   1.668   2.594 -0.5373 -0.0028  0.2024
  511EMC     C3 6908   3.168   1.435   2.588 -0.6904 -0.5638  0.2957
  511EMC     O1 6909   3.301   1.440   2.606  1.0814  0.4166 -0.4323
  511EMC     O2 6910   3.186   1.549   2.653 -0.4291  0.5784  0.6747
  511EMC     O3 6911   3.124   1.412   2.480  0.3986 -0.1333 -0.4361
  511EMC     H1 6912   3.321   1.305   2.442 -0.5071  1.0397 -0.0268
  511EMC     H2 6913   3.398   1.260   2.596 -2.6104  0.3215  1.3578
  511EMC     H3 6914   3.470   1.382   2.494 -0.6836 -0.5465 -0.5133
  511EMC     C4 6915   3.167   1.779   2.697  0.1884 -0.2018 -0.0921
  511EMC     H4 6916   3.026   1.662   2.581 -0.5203  1.3341 -0.7269
  511EMC     H5 6917   3.181   1.689   2.498  0.3109 -2.0669  0.1008
  511EMC     H6 6918   3.268   1.820   2.694 -0.5211  1.7859  1.1815
  511EMC     H7 6919   3.143   1.757   2.801  1.4960  0.0403  0.2832
  511EMC     H8 6920   3.110   1.866   2.665  1.7783  0.6800 -0.6698
  512EMC     C1 6921   0.445   4.072   1.981  0.2659 -0.6354  0.3459
  512EMC     C2 6922   0.778   4.202   2.148 -0.0459 -0.4029 -1.0286
  512EMC     C3 6923   0.675   4.031   2.011  0.3632  0.2483 -1.3355
  512EMC     O1 6924   0.553   4.024   2.063 -0.0223  0.3778  0.1001
  512EMC     O2 6925   0.721   4.072   2.134 -0.4861 -1.0910  0.7059
  512EMC     O3 6926   0.701   4.088   1.903  0.4418  0.6685  0.3741
  512EMC     H1 6927   0.422   4.179   1.977 -0.6780 -0.8765 -2.2926
  512EMC     H2 6928   0.350   4.044   2.025 -0.0899 -1.5700 -0.9531
  512EMC     H3 6929   0.457   4.043   1.877  3.5562 -0.0418  0.4387
  512EMC     C4 6930   0.755   4.248   2.290 -0.3050 -0.0568  0.2612
  512EMC     H4 6931   0.726   4.276   2.087 -0.7372  0.7624  0.8737
  512EMC     H5 6932   0.886   4.200   2.142  0.0475  1.8608 -0.9208
  512EMC     H6 6933   0.825   4.326   2.318  1.1801 -1.1255 -0.3334
  512EMC     H7 6934   0.775   4.158   2.347 -0.4188  0.1389  0.6102
  512EMC     H8 6935   0.651   4.273   2.312 -0.4332 -1.2923  1.1317
  513EMC     C1 6936   4.104   0.993   3.735  0.0709  0.1215 -0.0742
  513EMC     C2 6937   4.429   1.011   3.537 -0.0529  0.2433 -0.2245
  513EMC     C3 6938   4.312   0.882   3.701 -0.3427 -0.4092  0.0568
  513EMC     O1 6939   4.198   0.912   3.657  0.4963  0.1514 -0.2123
  513EMC     O2 6940   4.332   0.916   3.565 -0.3830  0.7293 -0.0001
  513EMC     O3 6941   4.363   0.936   3.799  0.1194 -0.0323  0.0879
  513EMC     H1 6942   4.159   1.070   3.788 -0.6974  1.6821 -1.4342
  513EMC     H2 6943   4.039   0.936   3.801  1.2492  1.4839  2.3954
  513EMC     H3 6944   4.045   1.055   3.667 -2.0873  1.0686  2.4864
  513EMC     C4 6945   0.035   0.945   3.454  0.3598  0.2992 -0.6147
  513EMC     H4 6946   4.473   1.056   3.626 -0.9053 -1.5550  1.1576
  513EMC     H5 6947   4.379   1.094   3.487  3.5528  1.6496 -1.8670
  513EMC     H6 6948   0.102   1.020   3.412  1.0866 -0.9680 -1.8238
  513EMC     H7 6949   4.490   0.916   3.357 -1.6128 -0.4317  0.3903
  513EMC     H8 6950   0.079   0.865   3.513 -0.6590 -0.4346 -0.8409
  514EMC     C1 6951   3.347   0.114   3.064  0.5645  0.6076 -0.0110
  514EMC     C2 6952   3.334   4.402   2.715  0.7049  0.4991 -0.1920
  514EMC     C3 6953   3.222   4.467   2.920 -0.0222 -0.9097 -0.0137
  514EMC     O1 6954   3.321   0.060   2.931  0.1779 -0.3483  0.3170
  514EMC     O2 6955   3.319   4.396   2.856  0.0960 -0.2691  0.3496
  514EMC     O3 6956   3.159   4.419   3.012 -0.0208 -0.3762 -0.0992
  514EMC     H1 6957   3.417   0.195   3.041 -2.1436  1.8962 -5.1046
  514EMC     H2 6958   3.395   0.047   3.135  0.5518  1.5535  0.9337
  514EMC     H3 6959   3.250   0.146   3.102 -0.1799  1.1045 -2.2013
  514EMC     C4 6960   3.411   4.276   2.677  0.2812  0.0992  0.2476
  514EMC     H4 6961   3.401   4.480   2.680  1.0363 -0.7232 -2.4750
  514EMC     H5 6962   3.234   4.415   2.675  0.2715  0.8720  0.9580
  514EMC     H6 6963   3.441   4.279   2.572  0.8143  0.4234  0.4083
  514EMC     H7 6964   3.352   4.186   2.693 -1.1453  0.9114 -0.1990
  514EMC     H8 6965   3.507   4.262   2.726  2.0416  2.5429 -2.2288
  515EMC     C1 6966   0.148   2.455   3.430 -0.5452  0.1927  0.6903
  515EMC     C2 6967   4.434   2.851   3.324  0.2620 -0.1761  0.1913
  515EMC     C3 6968   0.036   2.655   3.409 -0.4074 -0.9437 -0.0802
  515EMC     O1 6969   0.046   2.532   3.370  0.3008 -0.9657 -0.5519
  515EMC     O2 6970   4.443   2.708   3.329 -0.5780  0.0096 -0.1534
  515EMC     O3 6971   0.107   2.710   3.499 -0.6284 -0.1579  0.1860
  515EMC     H1 6972   0.145   2.468   3.538 -1.7998  1.4361  0.5459
  515EMC     H2 6973   0.243   2.492   3.392 -1.3702  2.6596  0.8032
  515EMC     H3 6974   0.146   2.349   3.407 -2.8967  0.1924  0.5841
  515EMC     C4 6975   4.339   2.886   3.208 -0.5397 -0.8125  0.2195
  515EMC     H4 6976   0.036   2.891   3.298 -0.6480  1.4277 -0.9693
  515EMC     H5 6977   4.411   2.907   3.415 -1.7740  1.7954 -1.4199
  515EMC     H6 6978   4.244   2.833   3.217 -0.5996 -1.3490 -2.5491
  515EMC     H7 6979   4.368   2.858   3.106 -0.1883 -0.0752  0.1088
  515EMC     H8 6980   4.322   2.993   3.205  1.4060 -0.4865 -0.3124
  516EMC     C1 6981   1.317   4.133   3.985  0.4998  0.1057  0.3654
  516EMC     C2 6982   1.528   4.482   4.151 -0.1161 -0.6351  0.3517
  516EMC     C3 6983   1.342   4.328   4.121 -0.5032  0.4412  0.0518
  516EMC     O1 6984   1.311   4.276   4.002 -0.4419  0.3861 -0.4087
  516EMC     O2 6985   1.420   4.428   4.078 -0.1411 -0.1190  0.5239
  516EMC     O3 6986   1.375   4.260   4.216  0.6274  0.0720 -0.6595
  516EMC     H1 6987   1.417   4.095   4.005  1.1654  1.2934 -0.5637
  516EMC     H2 6988   1.272   4.096   3.892 -2.4803  2.1880  0.8425
  516EMC     H3 6989   1.250   4.103   4.065 -1.7626  0.1936 -1.3872
  516EMC     C4 6990   1.561   0.128   4.089  0.0779  0.4539 -0.4442
  516EMC     H4 6991   1.621   4.427   4.162  1.3573  1.7907  0.8599
  516EMC     H5 6992   1.488   4.488   4.252 -0.2848  2.0972  0.2090
  516EMC     H6 6993   1.466   0.179   4.071 -0.6657 -1.3089 -1.8182
  516EMC     H7 6994   1.609   0.122   3.991 -0.8770 -1.5929 -0.8248
  516EMC     H8 6995   1.618   0.190   4.159  1.2596 -0.4596 -0.5690
  517EMC     C1 6996   3.861   4.308   3.765  0.2006  0.1764  0.5682
  517EMC     C2 6997   3.843   0.050   3.428 -0.1917 -0.0023 -0.1749
  517EMC     C3 6998   3.804   4.327   3.531  0.2179 -0.0343 -0.4285
  517EMC     O1 6999   3.778   4.356   3.662 -0.0616 -0.3679 -0.0848
  517EMC     O2 7000   3.763   4.452   3.495  0.0320 -0.4857 -0.4735
  517EMC     O3 7001   3.915   4.279   3.499  0.4881  0.2330 -0.3325
  517EMC     H1 7002   3.838   4.202   3.782  1.1100  0.1882  1.9827
  517EMC     H2 7003   3.847   4.356   3.862 -0.4715 -0.4336  0.7846
  517EMC     H3 7004   3.961   4.327   3.727  0.5750 -2.2365  0.1773
  517EMC     C4 7005   3.777   0.105   3.303  0.2109 -0.6983 -0.1492
  517EMC     H4 7006   3.943   0.013   3.406  0.1818  1.2305 -0.6312
  517EMC     H5 7007   3.871   0.122   3.505 -0.2926  0.4511 -0.5603
  517EMC     H6 7008   3.732   0.026   3.243 -0.0615  0.3378 -1.3228
  517EMC     H7 7009   3.853   0.143   3.235 -0.4776 -0.7759 -0.9734
  517EMC     H8 7010   3.696   0.176   3.319  0.7489  0.0213 -0.5460
  518EMC     C1 7011   3.948   1.247   0.491 -0.1204  0.7805  0.5140
  518EMC     C2 7012   3.755   1.108   0.869 -0.4189  0.2385  0.5198
  518EMC     C3 7013   3.878   1.099   0.671  0.0293 -0.2500  0.3246
  518EMC     O1 7014   3.850   1.161   0.555  0.7775 -0.5206  0.1384
  518EMC     O2 7015   3.769   1.146   0.731 -0.5181  0.1683 -0.7043
  518EMC     O3 7016   3.989   1.078   0.720 -0.3635  0.1642  0.2751
  518EMC     H1 7017   3.994   1.212   0.398  1.9217  2.3736  0.8458
  518EMC     H2 7018   4.043   1.261   0.542 -0.5378 -1.7661  2.1866
  518EMC     H3 7019   3.904   1.344   0.469  1.4994  1.6080  0.7942
  518EMC     C4 7020   3.671   1.208   0.954  0.0298  0.3852 -0.7341
  518EMC     H4 7021   3.853   1.110   0.917 -1.3651  0.0222  2.5349
  518EMC     H5 7022   3.705   1.013   0.885 -0.5691 -0.6649 -3.9995
  518EMC     H6 7023   3.725   1.303   0.955  1.9626 -0.6446  1.4782
  518EMC     H7 7024   3.645   1.172   1.053  0.1000  0.7105 -0.5964
  518EMC     H8 7025   3.573   1.233   0.913  0.2336  1.0362 -0.8413
  519EMC     C1 7026   0.875   4.006   3.457  0.1887  0.1459  0.1277
  519EMC     C2 7027   1.086   3.749   3.217 -0.2785 -0.1905  0.4552
  519EMC     C3 7028   1.014   3.816   3.432  0.4178  1.0568  0.5947
  519EMC     O1 7029   1.007   3.949   3.458  0.5356  0.5801  0.4563
  519EMC     O2 7030   1.075   3.851   3.316 -0.3529  0.5467  0.0450
  519EMC     O3 7031   0.912   3.740   3.427  0.8681  0.2972  0.3852
  519EMC     H1 7032   0.798   3.945   3.504 -0.1104  0.1165 -0.3951
  519EMC     H2 7033   0.831   4.031   3.361  2.1604  1.2776 -0.5303
  519EMC     H3 7034   0.871   4.105   3.502  0.4606  0.1317  0.1840
  519EMC     C4 7035   1.138   3.804   3.080  0.4435 -0.4052  0.4888
  519EMC     H4 7036   0.997   3.691   3.192  0.8799 -1.4479 -0.9857
  519EMC     H5 7037   1.163   3.676   3.242  0.6738  0.7463  0.3121
  519EMC     H6 7038   1.067   3.873   3.036  0.1388 -0.7491  0.4318
  519EMC     H7 7039   1.152   3.718   3.015 -0.7510 -1.9177  2.1257
  519EMC     H8 7040   1.234   3.856   3.082  0.5550 -0.6229  1.8868
  520EMC     C1 7041   3.662   0.471   4.172  0.1571  1.0419  0.0404
  520EMC     C2 7042   3.650   0.184   3.898 -0.2307  0.3151  0.1793
  520EMC     C3 7043   3.758   0.282   4.085 -0.3771  0.0559  0.7263
  520EMC     O1 7044   3.750   0.407   4.085 -0.2512  0.2509  0.4567
  520EMC     O2 7045   3.749   0.282   3.951  0.1221  0.5122 -0.3134
  520EMC     O3 7046   3.697   0.210   4.164  0.3854 -0.2630 -0.1747
  520EMC     H1 7047   3.684   0.425   4.268 -0.2730 -0.8523 -0.7384
  520EMC     H2 7048   3.557   0.451   4.150  0.1002 -0.1760  1.2962
  520EMC     H3 7049   3.681   0.579   4.177  0.1983  1.2189 -2.4621
  520EMC     C4 7050   3.627   0.210   3.744  0.2409 -0.2868 -0.1288
  520EMC     H4 7051   3.554   0.196   3.947  0.8840  2.5350  1.9932
  520EMC     H5 7052   3.677   0.079   3.915  1.1498  0.5779 -0.2620
  520EMC     H6 7053   3.548   0.138   3.725  0.8328 -0.7742 -0.8099
  520EMC     H7 7054   3.717   0.191   3.686  0.3087 -2.6049  0.6197
  520EMC     H8 7055   3.601   0.307   3.702  0.0723  0.3898  1.4493
  521EMC     C1 7056   3.798   2.265   0.563 -0.8329  0.0050 -0.1597
  521EMC     C2 7057   3.836   2.561   0.912 -0.6176  1.6359 -0.5346
  521EMC     C3 7058   3.863   2.377   0.758 -0.6903  0.2210  0.3224
  521EMC     O1 7059   3.832   2.386   0.636 -0.0625  0.4868  0.4473
  521EMC     O2 7060   3.799   2.492   0.795 -0.0248  0.7679  0.4593
  521EMC     O3 7061   3.869   2.270   0.820  0.4314 -0.0385  0.3953
  521EMC     H1 7062   3.697   2.228   0.583 -1.3659  0.4235 -1.9570
  521EMC     H2 7063   3.877   2.192   0.580 -2.7309 -1.2877  4.8181
  521EMC     H3 7064   3.801   2.293   0.458 -0.2691 -0.4704 -0.2760
  521EMC     C4 7065   3.746   2.688   0.917 -0.9485 -0.5045 -0.4909
  521EMC     H4 7066   3.943   2.581   0.918 -0.9198  2.8375  1.8297
  521EMC     H5 7067   3.813   2.492   0.993 -2.4884 -1.3214 -3.3313
  521EMC     H6 7068   3.756   2.755   0.831 -1.8515  1.7466  1.0462
  521EMC     H7 7069   3.784   2.745   1.002  0.0842 -0.2016 -1.1324
  521EMC     H8 7070   3.638   2.682   0.924 -1.1280  2.1011  0.1283
  522EMC     C1 7071   1.807   4.282   2.063 -0.2845 -0.0842 -0.4336
  522EMC     C2 7072   1.539   0.077   2.302 -0.4512 -0.1218  0.5110
  522EMC     C3 7073   1.704   4.409   2.238  0.0036 -0.1944  0.3761
  522EMC     O1 7074   1.793   4.407   2.143 -0.4503 -0.0303 -0.2966
  522EMC     O2 7075   1.662   0.042   2.238 -0.6205 -0.2469  0.3595
  522EMC     O3 7076   1.642   4.309   2.275 -0.5606 -0.0922  0.1982
  522EMC     H1 7077   1.861   4.211   2.126 -0.0932  1.1129  0.8038
  522EMC     H2 7078   1.863   4.303   1.972  2.7508 -0.3379  1.2432
  522EMC     H3 7079   1.711   4.235   2.040 -0.4430 -0.5609  1.0561
  522EMC     C4 7080   1.476   0.187   2.219 -0.3275  0.4961  0.4067
  522EMC     H4 7081   1.569   0.119   2.398 -1.1929  2.1232 -0.1675
  522EMC     H5 7082   1.468   4.491   2.312 -0.4817  0.0913  2.2911
  522EMC     H6 7083   1.467   0.270   2.289 -0.3725  0.4909  0.4063
  522EMC     H7 7084   1.377   0.162   2.182 -0.4773  1.8766 -0.2075
  522EMC     H8 7085   1.542   0.208   2.134  1.4630 -0.6513  1.4529
  523EMC     C1 7086   1.512   3.874   4.359 -0.3196  0.2428 -0.5848
  523EMC     C2 7087   1.743   4.207   4.402 -0.8324  0.5442 -0.6741
  523EMC     C3 7088   1.642   4.050   4.264 -0.5064  0.8816  0.8003
  523EMC     O1 7089   1.524   4.008   4.318 -0.6846  0.3305  0.4294
  523EMC     O2 7090   1.631   4.163   4.330  0.5866 -0.5773 -0.8211
  523EMC     O3 7091   1.745   3.983   4.264 -0.0946 -0.7004 -0.1260
  523EMC     H1 7092   1.421   3.847   4.413 -0.2611  1.2372  0.0552
  523EMC     H2 7093   1.588   3.865   4.436 -1.6873 -1.5307  0.6330
  523EMC     H3 7094   1.532   3.794   4.289  1.7272 -1.3906  1.7174
  523EMC     C4 7095   1.720   4.326   0.003 -0.1292 -0.0107  0.0025
  523EMC     H4 7096   1.823   4.232   4.332  0.5327  0.6107  0.8194
  523EMC     H5 7097   1.784   4.123   4.459  2.2171  1.4732 -1.2892
  523EMC     H6 7098   1.816   4.356   0.044  0.8670 -2.4367 -0.4081
  523EMC     H7 7099   1.646   4.310   0.082 -0.1546  0.2702  0.0353
  523EMC     H8 7100   1.675   4.411   4.447  0.5069  1.0042  1.0675
  524EMC     C1 7101   1.441   3.883   0.243 -0.0745  0.7380  0.0678
  524EMC     C2 7102   1.707   4.160   0.359  0.2630  0.1746  0.7686
  524EMC     C3 7103   1.509   4.101   0.226  0.3635 -0.7478  0.5892
  524EMC     O1 7104   1.488   4.003   0.304  0.3487  0.7790  0.1221
  524EMC     O2 7105   1.638   4.074   0.260 -0.8636 -0.2187 -0.1695
  524EMC     O3 7106   1.475   4.105   0.104  0.4124  0.4002  0.1941
  524EMC     H1 7107   1.402   3.831   0.330  0.2291 -0.3455 -0.4194
  524EMC     H2 7108   1.517   3.819   0.197  0.1535  0.2318  1.1148
  524EMC     H3 7109   1.359   3.900   0.174 -1.6552 -0.9273  1.4249
  524EMC     C4 7110   1.861   4.143   0.351 -0.2768 -0.6078  0.1166
  524EMC     H4 7111   1.670   4.135   0.459  0.2787 -0.9024  0.5099
  524EMC     H5 7112   1.669   4.262   0.346 -1.3428 -0.7112 -2.3035
  524EMC     H6 7113   1.872   4.037   0.377  1.2614 -0.4459  0.1962
  524EMC     H7 7114   1.918   4.210   0.415  1.5745 -1.9250 -0.0715
  524EMC     H8 7115   1.902   4.167   0.253  2.7472  1.0866  1.6748
  525EMC     C1 7116   1.714   2.317   2.216  0.1031  0.4359  0.2089
  525EMC     C2 7117   1.707   2.226   2.592  0.8669 -0.0322 -0.5620
  525EMC     C3 7118   1.789   2.154   2.379  0.0163 -1.1354 -0.4357
  525EMC     O1 7119   1.789   2.285   2.334 -0.3662 -0.4624 -0.1585
  525EMC     O2 7120   1.800   2.240   2.493  0.2861  0.5863 -0.1376
  525EMC     O3 7121   1.700   2.076   2.362 -0.5350 -0.2282 -0.2280
  525EMC     H1 7122   1.754   2.407   2.169  0.4707 -0.1408 -0.6179
  525EMC     H2 7123   1.607   2.319   2.236  0.3756  0.4478  1.8004
  525EMC     H3 7124   1.738   2.251   2.133  0.4800  0.9371 -0.0859
  525EMC     C4 7125   1.730   2.329   2.705  0.0729 -0.0450  0.2207
  525EMC     H4 7126   1.731   2.126   2.630  2.1100  0.0351 -1.1020
  525EMC     H5 7127   1.604   2.233   2.556  0.7186  1.4416  0.1054
  525EMC     H6 7128   1.761   2.426   2.664  1.8712 -0.7654 -0.2023
  525EMC     H7 7129   1.818   2.287   2.753  0.1720 -0.1061 -0.0138
  525EMC     H8 7130   1.653   2.346   2.780  0.2375  2.4601 -0.0614
  526EMC     C1 7131   1.282   3.457   3.989  0.1323  0.0942  0.2585
  526EMC     C2 7132   1.168   3.834   3.791  0.6757 -0.2914  0.4279
  526EMC     C3 7133   1.309   3.657   3.857  0.0175  0.8726 -0.3503
  526EMC     O1 7134   1.230   3.559   3.897 -0.2826 -0.0784  0.0796
  526EMC     O2 7135   1.184   3.707   3.844 -0.4272 -0.0833 -0.1910
  526EMC     O3 7136   1.403   3.699   3.927  0.4921  0.2559 -0.3614
  526EMC     H1 7137   1.296   3.487   4.093 -1.4204  1.5654  0.0977
  526EMC     H2 7138   1.385   3.428   3.970  1.3161  3.2411  1.2420
  526EMC     H3 7139   1.220   3.367   3.989 -0.3274  0.3152 -2.4816
  526EMC     C4 7140   1.032   3.888   3.832 -0.0353 -0.8556 -0.0408
  526EMC     H4 7141   1.164   3.828   3.683  2.8233 -0.8016  0.3452
  526EMC     H5 7142   1.249   3.902   3.817 -0.1597 -0.3777  3.7447
  526EMC     H6 7143   0.940   3.834   3.810 -1.3544  1.2015  0.1449
  526EMC     H7 7144   1.021   3.984   3.780  0.3270 -2.3892 -3.1844
  526EMC     H8 7145   1.018   3.887   3.940 -1.4548 -1.3733 -0.2036
  527EMC     C1 7146   0.383   1.212   0.194 -0.6574  0.0519 -0.0370
  527EMC     C2 7147   0.592   1.046   4.390 -0.1103 -0.1271 -0.3982
  527EMC     C3 7148   0.483   1.242   4.474 -0.4323 -0.3134  0.2680
  527EMC     O1 7149   0.377   1.204   0.046  0.1087  0.1225 -0.1460
  527EMC     O2 7150   0.473   1.125   4.405 -0.1572 -0.1261 -0.5113
  527EMC     O3 7151   0.590   1.288   0.029  0.1194 -0.2315  0.2170
  527EMC     H1 7152   0.283   1.201   0.236 -0.9286  0.2266 -0.6289
  527EMC     H2 7153   0.414   1.308   0.234  0.1536 -0.7773  1.4152
  527EMC     H3 7154   0.445   1.133   0.235 -1.7648  0.4904  2.6566
  527EMC     C4 7155   0.558   0.942   4.290  0.2500  0.2952  0.2433
  527EMC     H4 7156   0.612   1.000   4.487  2.7379 -1.4297 -1.4865
  527EMC     H5 7157   0.674   1.111   4.362 -0.1893 -0.5854 -1.7696
  527EMC     H6 7158   0.631   0.862   4.280 -2.6115 -2.2254 -1.9140
  527EMC     H7 7159   0.547   0.988   4.192 -2.8564 -0.6701  0.0358
  527EMC     H8 7160   0.466   0.892   4.317  0.9831 -0.5893  1.1678
  528EMC     C1 7161   2.680   4.460   0.682 -0.0227 -0.7326 -0.1918
  528EMC     C2 7162   2.364   4.339   0.740 -0.2233 -0.2349  0.2299
  528EMC     C3 7163   2.577   4.295   0.819 -0.8762 -0.3430  0.6287
  528EMC     O1 7164   2.649   4.330   0.702 -0.0078 -0.3071  0.3359
  528EMC     O2 7165   2.484   4.274   0.727 -0.5000 -0.2776  0.1273
  528EMC     O3 7166   2.574   4.368   0.919  0.1281  0.8287  0.4500
  528EMC     H1 7167   2.783   4.479   0.651 -0.5259  2.6382 -0.1659
  528EMC     H2 7168   2.665   0.027   0.770  3.0893 -1.0297  0.6616
  528EMC     H3 7169   2.609   4.487   0.604  0.5501  1.1130 -0.1149
  528EMC     C4 7170   2.312   4.352   0.591  0.9800  0.0602 -0.4152
  528EMC     H4 7171   2.370   4.443   0.771  3.9735 -0.4700  0.7896
  528EMC     H5 7172   2.299   4.282   0.806 -1.3877 -0.9481 -1.4593
  528EMC     H6 7173   2.220   4.405   0.565  0.8129  0.4100  0.7840
  528EMC     H7 7174   2.294   4.253   0.549 -0.5620  1.2921 -2.8877
  528EMC     H8 7175   2.391   4.392   0.528  0.7904 -0.8498 -1.2450
  529EMC     C1 7176   3.984   2.848   0.038  0.1986 -0.7096  0.0497
  529EMC     C2 7177   4.260   2.638   4.311  0.3295  0.8459  0.5118
  529EMC     C3 7178   4.121   2.659   0.003 -0.4734 -0.8956  0.0033
  529EMC     O1 7179   4.001   2.714   0.002  0.1274 -0.1400 -0.3719
  529EMC     O2 7180   4.138   2.634   4.372 -0.2225 -0.7434 -0.1767
  529EMC     O3 7181   4.213   2.681   0.083  0.3524  0.0990  0.0357
  529EMC     H1 7182   4.067   2.884   0.100  0.2393 -0.4790 -0.1364
  529EMC     H2 7183   3.896   2.851   0.103  1.0380  0.0082  1.1979
  529EMC     H3 7184   3.972   2.912   4.447  0.1293  0.9926  1.2610
  529EMC     C4 7185   4.240   2.578   4.173 -0.0299 -0.8295 -0.7831
  529EMC     H4 7186   4.323   2.567   4.364  0.4166  0.6214  0.1133
  529EMC     H5 7187   4.306   2.736   4.325  2.9361 -0.0341 -1.1683
  529EMC     H6 7188   4.160   2.632   4.122 -1.1430 -0.4995  1.2210
  529EMC     H7 7189   4.206   2.475   4.189 -2.5357  0.3327  2.2745
  529EMC     H8 7190   4.336   2.586   4.121  1.1548 -0.0645  1.4061
  530EMC     C1 7191   2.112   3.605   1.772 -0.5981  0.8738  0.3737
  530EMC     C2 7192   1.934   3.889   2.088 -0.9603  0.7410 -0.1852
  530EMC     C3 7193   2.014   3.784   1.895 -1.0254 -0.2859 -0.7065
  530EMC     O1 7194   2.116   3.705   1.875 -0.3535 -0.4812  0.1802
  530EMC     O2 7195   2.036   3.826   2.015 -0.2414 -0.2264  0.6433
  530EMC     O3 7196   1.909   3.773   1.840 -1.2143 -0.5728 -0.7632
  530EMC     H1 7197   2.208   3.554   1.769 -0.6277  0.8388 -0.0241
  530EMC     H2 7198   2.119   3.657   1.676  2.7670 -1.6613 -0.9503
  530EMC     H3 7199   2.029   3.536   1.785  0.1440 -0.9176 -3.1827
  530EMC     C4 7200   2.005   3.982   2.185 -0.0915  0.1252 -0.4839
  530EMC     H4 7201   1.870   3.821   2.146 -1.3157  2.1313  1.1206
  530EMC     H5 7202   1.859   3.945   2.032  0.8673  1.8995 -1.5574
  530EMC     H6 7203   2.084   3.927   2.237  0.4796  0.2989 -1.1546
  530EMC     H7 7204   1.941   4.037   2.254 -1.9077 -1.2124 -1.0236
  530EMC     H8 7205   2.050   4.067   2.135 -1.9619  1.6850  0.3724
  531EMC     C1 7206   1.781   1.350   3.048 -0.0791  0.1162  0.3150
  531EMC     C2 7207   1.543   1.139   3.360  0.6157 -0.1692  0.3481
  531EMC     C3 7208   1.595   1.280   3.184 -0.0556 -0.0072 -0.1121
  531EMC     O1 7209   1.703   1.350   3.171 -0.5733  0.0941 -0.0676
  531EMC     O2 7210   1.625   1.233   3.298 -0.0853 -0.7192 -0.0075
  531EMC     O3 7211   1.528   1.222   3.102 -0.5251 -0.2669  0.1105
  531EMC     H1 7212   1.726   1.393   2.964  0.2822 -0.7796 -0.3854
  531EMC     H2 7213   1.804   1.251   3.009 -1.6411  0.1063 -0.6766
  531EMC     H3 7214   1.877   1.402   3.057  1.2663 -2.1957 -0.0479
  531EMC     C4 7215   1.610   1.082   3.483  0.0054 -0.2426  0.4445
  531EMC     H4 7216   1.518   1.054   3.297 -3.1051  1.4310 -0.5812
  531EMC     H5 7217   1.455   1.191   3.397 -0.8685 -3.5741  1.9866
  531EMC     H6 7218   1.717   1.069   3.471 -0.1614  0.5189 -2.5609
  531EMC     H7 7219   1.563   0.986   3.505  1.7821 -0.7933  2.1685
  531EMC     H8 7220   1.594   1.151   3.566 -0.4177  1.2819 -0.8475
  532EMC     C1 7221   3.068   4.426   1.012 -0.0352  0.0821  0.4027
  532EMC     C2 7222   2.889   0.070   1.345 -1.0712  0.5760  0.7650
  532EMC     C3 7223   2.971   0.110   1.128 -0.1593  0.0806  0.2749
  532EMC     O1 7224   3.081   0.040   1.099  0.1991  0.5652  0.1854
  532EMC     O2 7225   2.989   0.118   1.255  0.2202 -0.1153  0.8305
  532EMC     O3 7226   2.858   0.088   1.083 -0.0340  0.7523 -0.1184
  532EMC     H1 7227   3.014   4.348   1.066 -0.7837  0.2822 -0.0434
  532EMC     H2 7228   3.161   4.378   0.981  0.5949 -0.7546  3.2078
  532EMC     H3 7229   3.010   4.442   0.922 -0.7101  2.2481  1.1650
  532EMC     C4 7230   2.901   0.138   1.482  0.1104  0.2234  0.6539
  532EMC     H4 7231   2.904   4.459   1.361  1.4828  1.1517  3.1103
  532EMC     H5 7232   2.786   0.079   1.310 -1.0019 -0.5217  0.2389
  532EMC     H6 7233   2.811   0.123   1.541 -0.9549 -1.3665 -1.2323
  532EMC     H7 7234   2.899   0.246   1.468 -0.0793  0.1635  0.1995
  532EMC     H8 7235   2.988   0.108   1.541  0.1503  1.2202  1.1119
  533EMC     C1 7236   0.654   3.240   2.724  0.5130 -0.0767  0.6937
  533EMC     C2 7237   0.563   3.465   3.026 -0.5862 -1.0542 -0.5820
  533EMC     C3 7238   0.481   3.298   2.873  0.4401  1.0534 -0.0269
  533EMC     O1 7239   0.599   3.238   2.853 -0.4908  0.6494 -0.2004
  533EMC     O2 7240   0.549   3.326   2.988 -0.7849  0.0399  0.0222
  533EMC     O3 7241   0.427   3.374   2.792  0.2786  0.0446 -0.2410
  533EMC     H1 7242   0.647   3.329   2.661 -3.0008 -1.1095 -0.6810
  533EMC     H2 7243   0.618   3.168   2.650 -0.1394  0.9868 -0.0532
  533EMC     H3 7244   0.754   3.200   2.737  0.2069 -1.7597 -1.4876
  533EMC     C4 7245   0.443   3.513   3.107 -0.1405  0.2378 -0.0586
  533EMC     H4 7246   0.585   3.531   2.942  1.9846 -0.3406  0.5488
  533EMC     H5 7247   0.646   3.485   3.093 -0.7450  1.2690 -0.9739
  533EMC     H6 7248   0.346   3.496   3.061 -1.1842 -0.1208  2.1345
  533EMC     H7 7249   0.450   3.615   3.146 -1.4921  0.3860 -0.1463
  533EMC     H8 7250   0.442   3.450   3.196  1.1273  0.3816  0.0729
  534EMC     C1 7251   4.101   0.535   0.609  0.0669 -0.7085  0.5320
  534EMC     C2 7252   4.063   0.786   0.894  0.0732  0.2050 -0.1253
  534EMC     C3 7253   3.938   0.694   0.711 -0.6873 -0.2175  0.3431
  534EMC     O1 7254   4.022   0.587   0.716 -0.4476  0.1874  0.2664
  534EMC     O2 7255   3.977   0.685   0.841 -0.2610 -0.4273 -0.1463
  534EMC     O3 7256   3.961   0.802   0.648 -0.2659 -0.4494 -0.6702
  534EMC     H1 7257   4.187   0.478   0.645 -1.1788 -2.6840  0.4741
  534EMC     H2 7258   4.128   0.617   0.543  2.0389 -1.9343 -0.2636
  534EMC     H3 7259   4.029   0.468   0.562  0.0094  0.1631 -0.6550
  534EMC     C4 7260   4.023   0.798   1.043 -0.0605 -0.4154 -0.9762
  534EMC     H4 7261   4.054   0.881   0.842  1.6047  1.5273  1.8771
  534EMC     H5 7262   4.167   0.755   0.884  0.3937  1.4412 -0.8243
  534EMC     H6 7263   4.044   0.703   1.093  0.0790 -0.1965 -0.6156
  534EMC     H7 7264   3.918   0.826   1.059  0.6386  1.8097  0.1602
  534EMC     H8 7265   4.082   0.882   1.080 -1.0197  0.9787 -2.4966
  535EMC     C1 7266   0.450   2.815   3.936  0.7615 -0.3011  0.2848
  535EMC     C2 7267   0.375   2.548   3.670  0.1105  0.2773  0.2260
  535EMC     C3 7268   0.488   2.751   3.713 -0.5547 -0.0060  0.4679
  535EMC     O1 7269   0.500   2.722   3.840 -0.0300 -0.7498  0.1862
  535EMC     O2 7270   0.482   2.617   3.714 -0.2230  0.3909  0.2958
  535EMC     O3 7271   0.397   2.824   3.673 -0.1696 -0.1354  0.4761
  535EMC     H1 7272   0.472   2.760   4.028  1.2203 -0.7446 -0.0809
  535EMC     H2 7273   0.342   2.821   3.930  0.9252  1.7670 -1.9619
  535EMC     H3 7274   0.506   2.908   3.928 -0.4007  0.5125  1.2925
  535EMC     C4 7275   0.408   2.399   3.670 -0.1212  0.6172  0.2600
  535EMC     H4 7276   0.340   2.580   3.572  2.9802  0.4744 -0.8301
  535EMC     H5 7277   0.282   2.564   3.725 -1.3412 -1.3607 -1.5546
  535EMC     H6 7278   0.512   2.376   3.647 -0.1294 -1.5451  1.9912
  535EMC     H7 7279   0.348   2.340   3.600  1.1175 -2.0610  1.2947
  535EMC     H8 7280   0.384   2.344   3.762 -0.0601  1.4694  0.7907
  536EMC     C1 7281   4.478   1.819   2.405 -0.1878 -0.6118  0.0041
  536EMC     C2 7282   0.178   1.910   2.753 -0.3764 -0.0783 -0.0210
  536EMC     C3 7283   0.130   1.756   2.579 -0.9330  0.2064 -0.1748
  536EMC     O1 7284   0.113   1.823   2.464  0.2559  0.5014  0.0923
  536EMC     O2 7285   0.190   1.868   2.622  0.7893 -0.4132  0.9546
  536EMC     O3 7286   0.054   1.683   2.634  0.2196 -0.0806 -0.1853
  536EMC     H1 7287   4.443   1.718   2.385 -3.0713 -0.0748  1.7487
  536EMC     H2 7288   4.464   1.886   2.321 -1.8093 -1.0520 -0.1114
  536EMC     H3 7289   4.411   1.851   2.485 -1.6187 -0.9814 -1.0085
  536EMC     C4 7290   0.155   2.061   2.742  0.0496  0.1053  0.1470
  536EMC     H4 7291   0.270   1.891   2.808 -1.4521 -1.8704  1.2511
  536EMC     H5 7292   0.094   1.865   2.807 -0.3853  0.2927  0.2828
  536EMC     H6 7293   0.131   2.106   2.839 -2.2576 -0.2095 -0.2121
  536EMC     H7 7294   0.068   2.079   2.679 -0.2739 -2.3439 -0.2014
  536EMC     H8 7295   0.242   2.117   2.709 -1.4800  2.1712 -0.6175
  537EMC     C1 7296   3.071   2.988   1.302  0.2530 -0.0137 -0.4649
  537EMC     C2 7297   2.772   2.894   1.117 -0.3271 -0.3077 -0.7384
  537EMC     C3 7298   2.940   2.784   1.257  0.3678  0.2830 -0.5609
  537EMC     O1 7299   2.957   2.901   1.319 -0.2847 -0.4904 -0.0255
  537EMC     O2 7300   2.824   2.853   1.245 -0.1292 -0.6047  0.2500
  537EMC     O3 7301   2.996   2.753   1.149  0.3603  0.5740  0.0697
  537EMC     H1 7302   3.052   3.094   1.321  2.1389  0.2072  0.3757
  537EMC     H2 7303   3.121   2.969   1.207 -1.2676 -0.9531 -1.1228
  537EMC     H3 7304   3.148   2.971   1.376  0.2773  0.4963 -0.3686
  537EMC     C4 7305   2.650   2.977   1.147  0.4245  0.3835 -0.0963
  537EMC     H4 7306   2.745   2.802   1.065 -0.1686 -2.5769  2.8344
  537EMC     H5 7307   2.844   2.940   1.050 -0.4322 -0.5361 -1.0102
  537EMC     H6 7308   2.574   2.914   1.193  1.7656 -0.6492  0.7900
  537EMC     H7 7309   2.612   3.013   1.052  0.8939  2.3276  0.4078
  537EMC     H8 7310   2.657   3.063   1.214 -2.0458  0.8039 -0.2900
  538EMC     C1 7311   3.867   3.921   0.898  0.3569 -0.1983 -0.3610
  538EMC     C2 7312   3.453   3.803   1.027 -0.1753  0.0628 -0.5464
  538EMC     C3 7313   3.666   3.914   1.025 -0.9600  0.5376  0.2130
  538EMC     O1 7314   3.740   3.976   0.935 -0.1318 -0.2136  0.8868
  538EMC     O2 7315   3.542   3.913   0.986  0.7550  0.2085  0.2550
  538EMC     O3 7316   3.709   3.833   1.106 -0.8831  0.1437  0.6341
  538EMC     H1 7317   3.921   3.864   0.974 -0.2592  1.2518  1.2341
  538EMC     H2 7318   3.939   3.993   0.856  0.3532  1.7297  2.6553
  538EMC     H3 7319   3.852   3.850   0.817 -1.4705  0.6000 -0.7629
  538EMC     C4 7320   3.342   3.786   0.923  0.0064  0.4175 -0.3312
  538EMC     H4 7321   3.409   3.819   1.125  3.1924  1.4907  0.8916
  538EMC     H5 7322   3.510   3.711   1.043 -0.3319  0.1812  0.8049
  538EMC     H6 7323   3.271   3.710   0.957  0.1484 -0.5509 -2.0438
  538EMC     H7 7324   3.391   3.752   0.831 -0.2257  2.1060 -1.1143
  538EMC     H8 7325   3.289   3.878   0.898 -0.6095  0.2335  0.2519
  539EMC     C1 7326   1.648   3.298   3.743 -0.2122 -0.7442  0.6495
  539EMC     C2 7327   1.754   2.857   3.782  0.8983 -0.0089 -0.1843
  539EMC     C3 7328   1.665   3.059   3.704  0.3551  0.0426  0.2625
  539EMC     O1 7329   1.727   3.180   3.725 -0.4912  0.0026 -0.8993
  539EMC     O2 7330   1.771   2.989   3.729  0.0458 -0.2402 -0.0690
  539EMC     O3 7331   1.544   3.033   3.714  0.2244 -0.6688  0.1476
  539EMC     H1 7332   1.701   3.368   3.808 -2.2801  1.6353 -0.0332
  539EMC     H2 7333   1.552   3.287   3.792 -0.8878  1.8313  0.0720
  539EMC     H3 7334   1.624   3.346   3.647 -0.6370 -1.5486  0.3508
  539EMC     C4 7335   1.861   2.833   3.893  0.1888 -0.6538  0.3225
  539EMC     H4 7336   1.773   2.791   3.698 -1.5051 -0.6979 -0.2628
  539EMC     H5 7337   1.651   2.840   3.812  1.2362 -3.0716 -0.4428
  539EMC     H6 7338   1.845   2.918   3.960 -0.1648  1.0637 -1.8277
  539EMC     H7 7339   1.957   2.826   3.843 -0.4732 -1.9939 -0.8199
  539EMC     H8 7340   1.833   2.743   3.948 -1.5060  0.2980  1.1111
  540EMC     C1 7341   1.375   1.180   4.178 -0.1941  0.1221 -0.0882
  540EMC     C2 7342   1.101   0.937   4.066 -0.2229 -0.2370 -0.6340
  540EMC     C3 7343   1.334   0.963   4.104 -0.5298 -1.5840 -0.0231
  540EMC     O1 7344   1.360   1.044   4.209 -0.1675  0.2695  0.6100
  540EMC     O2 7345   1.211   0.944   4.153 -0.1169 -0.0870  0.2535
  540EMC     O3 7346   1.344   0.995   3.989  0.3519  0.2333  0.0535
  540EMC     H1 7347   1.298   1.238   4.229 -0.1318  3.0445 -3.0265
  540EMC     H2 7348   1.367   1.206   4.073 -0.1124  1.2518  0.1698
  540EMC     H3 7349   1.462   1.225   4.226  1.4638 -0.2038 -2.6306
  540EMC     C4 7350   0.970   0.920   4.143  0.0931  0.0475  0.5728
  540EMC     H4 7351   1.107   0.853   3.997 -3.6854 -1.3670  0.2207
  540EMC     H5 7352   1.083   1.028   4.008 -0.6760 -1.2133 -2.0770
  540EMC     H6 7353   0.976   0.840   4.217  1.0858 -1.1204 -0.7254
  540EMC     H7 7354   0.888   0.919   4.072  0.4550  1.8524  0.0606
  540EMC     H8 7355   0.958   1.009   4.205 -1.8154 -0.2471  0.6584
  541EMC     C1 7356   4.131   0.955   2.776  0.5280 -0.6747  0.4595
  541EMC     C2 7357   3.852   0.727   2.611  0.4545  0.1103 -0.4928
  541EMC     C3 7358   4.099   0.755   2.656 -0.6348 -0.5893  0.8553
  541EMC     O1 7359   4.068   0.826   2.770  0.9269  0.2886  0.2160
  541EMC     O2 7360   3.971   0.710   2.692  0.0277 -0.0523  0.1633
  541EMC     O3 7361   4.114   0.799   2.539 -0.0461 -0.5838  0.0932
  541EMC     H1 7362   4.079   1.038   2.824 -0.5756 -0.4895 -0.9729
  541EMC     H2 7363   4.174   1.000   2.686 -0.5845  1.7267  1.0344
  541EMC     H3 7364   4.214   0.942   2.845 -0.8488  0.1712  2.3485
  541EMC     C4 7365   3.738   0.645   2.673 -0.2506  0.3248 -0.2261
  541EMC     H4 7366   3.887   0.680   2.519  1.4331  0.7861 -0.4743
  541EMC     H5 7367   3.820   0.827   2.581 -1.3526  0.5007  2.3741
  541EMC     H6 7368   3.695   0.692   2.761  1.1013 -1.0242  1.1901
  541EMC     H7 7369   3.761   0.546   2.710  1.6425  0.3637 -1.1926
  541EMC     H8 7370   3.664   0.632   2.593 -0.7421  0.2426  0.2325
  542EMC     C1 7371   0.280   1.545   2.894 -0.0327  0.2612  0.4059
  542EMC     C2 7372   0.559   1.490   3.120 -0.2930  0.3395 -0.0571
  542EMC     C3 7373   0.516   1.578   2.901  0.5172 -1.3382 -0.4857
  542EMC     O1 7374   0.390   1.627   2.922 -0.5936  0.1110  0.5007
  542EMC     O2 7375   0.546   1.601   3.034  0.3310  0.2226  0.2068
  542EMC     O3 7376   0.524   1.469   2.841 -0.0214 -0.7105 -0.2513
  542EMC     H1 7377   0.296   1.495   2.798  3.1981 -1.4714  1.7030
  542EMC     H2 7378   0.182   1.593   2.891 -0.3081 -0.2133 -3.2329
  542EMC     H3 7379   0.275   1.461   2.963  0.0145 -1.6498 -1.7775
  542EMC     C4 7380   0.695   1.513   3.193 -0.0598  0.1980 -0.4527
  542EMC     H4 7381   0.554   1.393   3.073 -1.8540  0.3933 -0.0410
  542EMC     H5 7382   0.466   1.493   3.178  0.4554 -0.6279  1.2508
  542EMC     H6 7383   0.771   1.491   3.118 -1.0521  0.8397 -1.6826
  542EMC     H7 7384   0.700   1.443   3.276  4.9264  2.7127  1.8280
  542EMC     H8 7385   0.699   1.615   3.231 -0.3393  0.0816 -0.1013
  543EMC     C1 7386   1.375   0.799   3.380  0.0418 -0.1340 -0.5745
  543EMC     C2 7387   0.952   0.847   3.182 -0.7336  0.3504  0.4665
  543EMC     C3 7388   1.176   0.840   3.268 -0.0761  0.1856  0.2191
  543EMC     O1 7389   1.231   0.825   3.385  0.5701 -0.7002 -0.7626
  543EMC     O2 7390   1.052   0.880   3.283  0.2529  0.0217 -0.1302
  543EMC     O3 7391   1.218   0.785   3.166 -0.1096  0.2465  0.1025
  543EMC     H1 7392   1.427   0.848   3.298 -2.1946  0.4071 -1.7411
  543EMC     H2 7393   1.382   0.690   3.374 -3.6229 -0.4490 -1.1641
  543EMC     H3 7394   1.405   0.831   3.480 -2.8956 -1.2993  0.8158
  543EMC     C4 7395   0.818   0.930   3.196 -0.7155 -0.3512 -0.3523
  543EMC     H4 7396   0.936   0.739   3.179  0.3444  0.1928 -0.1140
  543EMC     H5 7397   1.002   0.875   3.089 -0.1646 -0.9195  0.3714
  543EMC     H6 7398   0.749   0.880   3.264 -3.0308 -0.9786 -2.9825
  543EMC     H7 7399   0.759   0.942   3.106  0.1525 -0.3162 -0.9293
  543EMC     H8 7400   0.840   1.031   3.229 -0.5571 -1.2069  2.4307
  544EMC     C1 7401   3.294   1.242   0.965 -0.3274 -0.0721 -0.7233
  544EMC     C2 7402   3.248   0.820   1.017 -0.8579 -0.2244 -0.4725
  544EMC     C3 7403   3.338   1.012   0.914  0.5816  0.0493  0.0191
  544EMC     O1 7404   3.271   1.122   0.887  0.3688 -0.4165 -0.5870
  544EMC     O2 7405   3.243   0.914   0.908 -0.4658  0.4088 -0.5737
  544EMC     O3 7406   3.448   1.010   0.974  1.1454  0.6783  0.1193
  544EMC     H1 7407   3.367   1.236   1.046 -1.2889 -0.7422  0.1261
  544EMC     H2 7408   3.199   1.275   1.006 -1.2440 -2.0803 -1.0840
  544EMC     H3 7409   3.333   1.319   0.899  1.7012 -1.0789 -0.7690
  544EMC     C4 7410   3.119   0.744   1.038 -0.5101  0.0671 -0.1778
  544EMC     H4 7411   3.272   0.882   1.104 -0.4583  0.1959 -0.8757
  544EMC     H5 7412   3.338   0.759   1.022 -1.8137 -1.5702  1.4458
  544EMC     H6 7413   3.107   0.678   0.952  2.7183 -0.1484 -0.5917
  544EMC     H7 7414   3.037   0.816   1.045  0.3112  0.9491  0.8256
  544EMC     H8 7415   3.128   0.679   1.125  1.3272 -0.6310 -0.8509
  545EMC     C1 7416   2.013   1.658   3.855 -0.6613 -0.0418  0.3424
  545EMC     C2 7417   1.820   1.244   3.800 -0.4061 -0.0720  0.3195
  545EMC     C3 7418   1.945   1.435   3.794  0.0073  0.2351 -0.3714
  545EMC     O1 7419   1.957   1.532   3.886  0.4989  0.0184  0.2938
  545EMC     O2 7420   1.904   1.330   3.861  0.3979  0.3254 -0.1404
  545EMC     O3 7421   1.993   1.435   3.679  0.5150  0.2968  0.2383
  545EMC     H1 7422   1.967   1.693   3.763  2.1423  1.7260 -0.4959
  545EMC     H2 7423   2.115   1.655   3.818 -0.6162  1.6111  0.2652
  545EMC     H3 7424   2.010   1.721   3.944  1.5357 -0.8872  1.0854
  545EMC     C4 7425   1.755   1.143   3.886 -0.3012  1.0429 -0.1581
  545EMC     H4 7426   1.881   1.197   3.723 -1.4021  1.3608 -1.3922
  545EMC     H5 7427   1.739   1.291   3.745 -2.2980 -0.4165  2.6706
  545EMC     H6 7428   1.814   1.108   3.971 -1.7482 -0.3192  0.3326
  545EMC     H7 7429   1.714   1.070   3.816 -2.1961  0.1501  1.7619
  545EMC     H8 7430   1.667   1.186   3.934 -1.0474 -0.6654  0.1007
  546EMC     C1 7431   4.243   1.254   3.296 -0.1136  0.2430  0.0976
  546EMC     C2 7432   3.923   1.421   3.040  0.3790  0.5667  0.1019
  546EMC     C3 7433   4.057   1.248   3.150 -0.1778 -0.8155  0.2304
  546EMC     O1 7434   4.134   1.324   3.235  0.4877  0.4359 -0.3745
  546EMC     O2 7435   3.997   1.373   3.156 -0.4014 -0.4318 -0.3641
  546EMC     O3 7436   4.089   1.199   3.047 -0.1202 -0.5122 -0.6893
  546EMC     H1 7437   4.202   1.155   3.317 -0.4323  0.6344  1.4103
  546EMC     H2 7438   4.274   1.305   3.387  3.2315 -1.2306 -0.0497
  546EMC     H3 7439   4.319   1.270   3.219  1.5722 -1.0892  1.3841
  546EMC     C4 7440   3.873   1.557   3.059  1.3245  0.1050  0.2288
  546EMC     H4 7441   3.840   1.350   3.031 -0.5773  1.6042  0.5877
  546EMC     H5 7442   3.973   1.419   2.943 -0.6386 -1.5710 -0.4472
  546EMC     H6 7443   3.946   1.628   3.098  2.9272 -0.8150 -0.9602
  546EMC     H7 7444   3.785   1.572   3.122  1.2291 -0.4216  0.2291
  546EMC     H8 7445   3.846   1.597   2.961  0.7945 -1.2753 -0.2219
  547EMC     C1 7446   1.352   2.729   1.747  0.4763 -0.0209  0.0355
  547EMC     C2 7447   1.346   3.077   1.712 -0.0360  0.0454  0.5566
  547EMC     C3 7448   1.196   2.908   1.772  0.4954  0.1943  0.5732
  547EMC     O1 7449   1.254   2.813   1.693  0.8486 -0.7902  0.5991
  547EMC     O2 7450   1.233   2.999   1.685 -0.1419 -0.4724 -0.6217
  547EMC     O3 7451   1.214   2.920   1.890  0.5338  1.1860  0.0054
  547EMC     H1 7452   1.394   2.666   1.668  2.6454  2.8354 -1.3078
  547EMC     H2 7453   1.316   2.677   1.835  1.9145 -3.1510 -1.0798
  547EMC     H3 7454   1.438   2.788   1.779 -1.0098  1.3131  1.7428
  547EMC     C4 7455   1.303   3.216   1.741  0.6035 -0.3597 -0.3355
  547EMC     H4 7456   1.405   3.087   1.621 -0.5104 -1.4500  0.0566
  547EMC     H5 7457   1.400   3.024   1.791 -1.8131  0.2718  2.0010
  547EMC     H6 7458   1.244   3.236   1.831  3.3414 -1.8174  1.9547
  547EMC     H7 7459   1.246   3.264   1.662 -0.2384 -2.7721 -1.2977
  547EMC     H8 7460   1.392   3.278   1.746  0.2736 -0.0081  2.4910
  548EMC     C1 7461   3.287   4.186   4.297  0.0902 -0.1285 -0.2897
  548EMC     C2 7462   2.920   4.265   4.134 -0.1636 -0.1732 -0.3020
  548EMC     C3 7463   3.040   4.191   4.326  0.1620 -0.4615 -0.5194
  548EMC     O1 7464   3.156   4.242   4.271  0.3184 -0.6635 -0.0197
  548EMC     O2 7465   3.001   4.166   4.197 -0.2525  0.3141  0.4555
  548EMC     O3 7466   3.044   4.107   4.411  0.2705  0.4412 -0.0698
  548EMC     H1 7467   3.295   4.148   4.399 -0.6017 -1.0009 -0.5401
  548EMC     H2 7468   3.357   4.264   4.270 -0.2490  1.1656  2.2672
  548EMC     H3 7469   3.298   4.090   4.247 -1.6888 -2.0969  2.7390
  548EMC     C4 7470   2.902   4.232   3.983 -0.0425  0.3615  0.1821
  548EMC     H4 7471   2.941   4.370   4.152 -0.6615 -0.4427  2.1870
  548EMC     H5 7472   2.817   4.245   4.164 -0.0398  1.7633  1.6426
  548EMC     H6 7473   2.855   4.134   3.988 -0.5318  0.5484 -0.6506
  548EMC     H7 7474   2.989   4.226   3.917  0.0133  0.0969  0.2784
  548EMC     H8 7475   2.830   4.298   3.936  1.2370  1.9813  0.3813
  549EMC     C1 7476   2.591   1.435   0.649 -0.1431  0.8251  0.5816
  549EMC     C2 7477   2.849   1.537   1.001  0.5211  0.9212  0.2007
  549EMC     C3 7478   2.788   1.465   0.783 -0.1621  0.0854  0.6393
  549EMC     O1 7479   2.679   1.514   0.725 -0.6882  0.5353 -0.0422
  549EMC     O2 7480   2.811   1.565   0.866 -0.1440  0.0381 -0.2017
  549EMC     O3 7481   2.792   1.343   0.823  0.7755  0.1120  0.4343
  549EMC     H1 7482   2.560   1.348   0.707 -0.2359  0.7473  0.4154
  549EMC     H2 7483   2.639   1.393   0.562 -0.2831  2.6157 -0.4217
  549EMC     H3 7484   2.499   1.485   0.615  0.8615  0.7158 -2.6113
  549EMC     C4 7485   2.788   1.631   1.103  0.2047  0.4612  0.1711
  549EMC     H4 7486   2.956   1.528   1.023  0.5325  1.1015  0.2156
  549EMC     H5 7487   2.812   1.438   1.026 -0.7308  0.8227 -1.8319
  549EMC     H6 7488   2.766   1.727   1.056  0.9249  0.4452 -0.2200
  549EMC     H7 7489   2.862   1.645   1.181  0.0769  3.9267 -0.1915
  549EMC     H8 7490   2.694   1.592   1.143 -0.1820 -0.3147 -1.3895
  550PF6     P1 7491   3.609   1.239   2.113  0.4957  0.0094 -0.1022
  550PF6     F1 7492   3.581   1.096   2.066  0.3387 -0.1792 -0.0275
  550PF6     F2 7493   3.649   1.383   2.174  0.2122 -0.1863  0.3053
  550PF6     F3 7494   3.482   1.218   2.214 -0.4626  0.3336  0.3057
  550PF6     F4 7495   3.730   1.248   2.003  0.2801  0.1288 -0.1899
  550PF6     F5 7496   3.513   1.306   2.002  0.5666  0.1467  0.4047
  550PF6     F6 7497   3.707   1.184   2.225  0.5838 -0.0512 -0.1273
  551PF6     P1 7498   2.753   1.438   3.375  0.1752 -0.1420  0.1104
  551PF6     F1 7499   2.760   1.284   3.384 -0.8265  0.3611  0.3094
  551PF6     F2 7500   2.735   1.597   3.366 -0.1248  0.0124 -0.4249
  551PF6     F3 7501   2.821   1.449   3.521 -0.2370 -0.8529 -0.1000
  551PF6     F4 7502   2.691   1.433   3.230 -0.2945  0.1521 -0.1497
  551PF6     F5 7503   2.606   1.428   3.443 -0.4327 -0.3784 -0.0182
  551PF6     F6 7504   2.894   1.439   3.307  0.3957  1.0624  0.5701
  552PF6     P1 7505   0.183   1.486   1.306 -0.2766 -0.1082 -0.2126
  552PF6     F1 7506   0.339   1.451   1.298 -0.3298  0.0407 -0.1796
  552PF6     F2 7507   0.026   1.524   1.314 -0.2115 -0.4491 -0.2851
  552PF6     F3 7508   0.157   1.336   1.351 -0.4349  0.8233 -0.1394
  552PF6     F4 7509   0.221   1.635   1.258  0.0065  0.0480 -0.5608
  552PF6     F5 7510   0.160   1.439   1.150 -0.0168 -0.5443  0.3287
  552PF6     F6 7511   0.204   1.537   1.459  0.0259  0.4899  0.3274
  553PF6     P1 7512   4.093   3.332   3.943  0.0816 -0.2075 -0.0053
  553PF6     F1 7513   4.087   3.429   4.074 -0.0733 -0.1616  0.3698
  553PF6     F2 7514   4.112   3.240   3.810 -0.2490 -0.2594 -0.2835
  553PF6     F3 7515   4.248   3.318   3.970 -0.4049  0.4693  0.3926
  553PF6     F4 7516   3.932   3.342   3.923  0.4523  0.4905 -0.0317
  553PF6     F5 7517   4.120   3.470   3.854 -0.3654  0.4205 -0.0005
  553PF6     F6 7518   4.065   3.206   4.041 -0.0346  0.3274  0.7028
  554PF6     P1 7519   3.169   1.985   0.232 -0.4022 -0.0711 -0.0551
  554PF6     F1 7520   3.159   2.140   0.219  0.6590 -0.4299 -0.5598
  554PF6     F2 7521   3.178   1.823   0.259  0.1944 -0.4337  0.2345
  554PF6     F3 7522   3.148   1.971   0.068 -0.1272 -0.7517  0.0613
  554PF6     F4 7523   3.188   2.009   0.393  0.1096 -0.0604  0.0261
  554PF6     F5 7524   3.006   1.981   0.258  0.8790  0.1357  0.4330
  554PF6     F6 7525   3.325   1.991   0.204  0.2148  0.1197  0.3240
  555PF6     P1 7526   3.438   1.329   4.088  0.1105  0.1744 -0.2795
  555PF6     F1 7527   3.530   1.357   4.210  0.7052 -0.7075 -0.5837
  555PF6     F2 7528   3.340   1.308   3.967  0.1522  0.5451  0.1071
  555PF6     F3 7529   3.460   1.175   4.112  0.1002 -0.2467 -0.3606
  555PF6     F4 7530   3.429   1.487   4.067  0.2229  0.7584  0.0823
  555PF6     F5 7531   3.560   1.332   3.988 -0.0640 -0.0569 -0.5622
  555PF6     F6 7532   3.314   1.323   4.185  0.4420  0.1388  0.3381
  556PF6     P1 7533   2.246   1.988   3.813 -0.3147  0.1728 -0.1299
  556PF6     F1 7534   2.240   1.839   3.760 -0.5007  0.7937 -0.0939
  556PF6     F2 7535   2.266   2.143   3.861 -0.1497 -0.4267  0.2943
  556PF6     F3 7536   2.221   1.941   3.966 -0.0455  0.4527 -0.2360
  556PF6     F4 7537   2.276   2.047   3.658 -0.4483  0.6346  0.8607
  556PF6     F5 7538   2.093   2.003   3.801  0.3973  0.0989 -0.0351
  556PF6     F6 7539   2.402   1.964   3.831 -0.3462  0.0015  0.2256
  557PF6     P1 7540   4.260   2.421   0.789 -0.1748 -0.1530 -0.0980
  557PF6     F1 7541   4.334   2.288   0.839  0.4698 -0.1211 -0.3940
  557PF6     F2 7542   4.179   2.549   0.744  0.1226  0.0688  0.2399
  557PF6     F3 7543   4.144   2.393   0.898  0.0877  0.2028 -0.0071
  557PF6     F4 7544   4.375   2.444   0.680 -0.3354  0.0978 -0.2418
  557PF6     F5 7545   4.183   2.337   0.680 -0.5758  0.2125  0.0553
  557PF6     F6 7546   4.346   2.511   0.900 -0.6213 -0.4298 -0.1049
  558PF6     P1 7547   1.852   2.889   4.447 -0.5041 -0.1718  0.1275
  558PF6     F1 7548   1.807   2.794   4.325 -0.5241 -0.1238 -0.1367
  558PF6     F2 7549   1.903   2.979   0.070 -0.3341 -0.4901  0.1371
  558PF6     F3 7550   1.943   2.969   4.341  0.1702  0.3394 -0.5887
  558PF6     F4 7551   1.750   2.810   0.045  0.1495 -0.2965 -0.5417
  558PF6     F5 7552   1.967   2.782   4.483 -0.2079 -0.3583 -0.1866
  558PF6     F6 7553   1.728   2.983   4.417  0.1180 -0.3804 -0.1871
  559PF6     P1 7554   4.091   2.857   1.195 -0.1409  0.0633 -0.1955
  559PF6     F1 7555   4.140   2.872   1.346  0.4498 -0.5393  0.5244
  559PF6     F2 7556   4.052   2.834   1.044 -0.1650  0.2062  0.1225
  559PF6     F3 7557   4.172   2.990   1.145  0.5715  0.3034 -0.2331
  559PF6     F4 7558   4.011   2.726   1.239  0.1945  0.2878 -0.2128
  559PF6     F5 7559   3.959   2.952   1.220  0.2550  0.2168  0.4182
  559PF6     F6 7560   4.226   2.775   1.170 -0.3028 -0.1049 -0.0765
  560PF6     P1 7561   4.439   0.522   2.708  0.1974 -0.1205 -0.2456
  560PF6     F1 7562   4.340   0.589   2.814  0.0389  0.3021  0.4776
  560PF6     F2 7563   0.047   0.452   2.605  0.1034 -0.5870 -0.2538
  560PF6     F3 7564   4.408   0.380   2.765  0.2510 -0.4042 -0.2175
  560PF6     F4 7565   4.477   0.664   2.650  0.3153  0.2146 -0.0055
  560PF6     F5 7566   0.066   0.539   2.813  0.2481  0.2781 -0.7374
  560PF6     F6 7567   4.314   0.513   2.605 -0.0204 -0.0048 -0.4037
  561PF6     P1 7568   0.847   3.309   2.362  0.2727 -0.2770  0.0804
  561PF6     F1 7569   0.817   3.426   2.465 -0.1051  0.0777 -0.4354
  561PF6     F2 7570   0.869   3.193   2.254  0.4558 -0.5838 -0.2225
  561PF6     F3 7571   0.735   3.212   2.437 -0.5218 -0.1053 -0.1939
  561PF6     F4 7572   0.949   3.403   2.281 -0.4170  0.2388  0.2007
  561PF6     F5 7573   0.966   3.256   2.454  0.0185  0.0745 -0.6714
  561PF6     F6 7574   0.730   3.362   2.271  0.1735 -0.3468  0.1520
  562PF6     P1 7575   4.291   4.406   1.973 -0.0857  0.1017  0.4915
  562PF6     F1 7576   4.150   4.388   1.894  0.0744 -0.0634 -0.0828
  562PF6     F2 7577   4.423   4.425   2.061 -0.5206  0.6727  0.1290
  562PF6     F3 7578   4.206   4.408   2.108  0.2808  0.6738  0.3247
  562PF6     F4 7579   4.373   4.414   1.840 -0.2748  0.6007  0.4110
  562PF6     F5 7580   4.273   0.074   1.961  0.3390  0.2259 -0.0439
  562PF6     F6 7581   4.303   4.253   1.977 -0.0905  0.2297 -0.1150
  563PF6     P1 7582   0.447   2.286   1.594 -0.3591 -0.3126 -0.1323
  563PF6     F1 7583   0.430   2.146   1.659 -0.5653  0.2995  0.3676
  563PF6     F2 7584   0.464   2.432   1.535 -0.2909 -0.1062 -0.1433
  563PF6     F3 7585   0.554   2.325   1.705  0.0871 -0.9629 -1.4192
  563PF6     F4 7586   0.343   2.247   1.478  0.6521  0.0581  0.1032
  563PF6     F5 7587   0.320   2.337   1.686  0.1764 -0.0488  0.2206
  563PF6     F6 7588   0.565   2.232   1.505  0.1284  0.1808 -0.3664
  564PF6     P1 7589   4.236   4.426   4.478  0.2847 -0.2896 -0.1147
  564PF6     F1 7590   4.121   4.355   0.065  0.4732 -0.3134 -0.5123
  564PF6     F2 7591   4.349   0.008   4.403 -0.5980 -0.0743  0.5239
  564PF6     F3 7592   4.337   4.300   0.024  0.1172  1.1473 -0.3234
  564PF6     F4 7593   4.139   0.056   4.448 -0.0384 -0.0293  0.0466
  564PF6     F5 7594   4.282   4.494   0.113 -0.0653  0.0604  0.2464
  564PF6     F6 7595   4.190   4.354   4.348 -0.1158 -0.6857  0.5536
  565PF6     P1 7596   2.331   3.235   3.064  0.1803  0.0810 -0.1781
  565PF6     F1 7597   2.489   3.221   3.067  0.4435 -1.0333 -0.3970
  565PF6     F2 7598   2.176   3.232   3.059 -0.3801 -0.0267 -0.2771
  565PF6     F3 7599   2.333   3.309   3.200 -0.0451  0.5816  0.4972
  565PF6     F4 7600   2.329   3.159   2.924  0.3376 -0.0469  0.4492
  565PF6     F5 7601   2.324   3.094   3.140 -0.8370 -0.1060 -0.2712
  565PF6     F6 7602   2.338   3.375   2.983  0.2954  0.1819 -0.1615
  566PF6     P1 7603   1.094   1.325   3.316 -0.0874 -0.1615  0.1555
  566PF6     F1 7604   1.175   1.250   3.203 -0.2795 -0.0123  0.2758
  566PF6     F2 7605   1.016   1.405   3.432  0.4121  0.2137  0.1410
  566PF6     F3 7606   1.002   1.395   3.208  0.0791  0.0361  0.1975
  566PF6     F4 7607   1.178   1.249   3.424  0.2294  0.4238 -0.5155
  566PF6     F5 7608   1.194   1.446   3.316 -0.9851  0.0341 -0.1855
  566PF6     F6 7609   0.992   1.204   3.328  0.0202  0.4888  0.1986
  567PF6     P1 7610   1.836   2.489   1.860 -0.3090  0.0743 -0.2079
  567PF6     F1 7611   1.909   2.421   1.980  0.2885 -0.1954  0.4363
  567PF6     F2 7612   1.768   2.556   1.737  0.4543 -0.4620  0.0974
  567PF6     F3 7613   1.692   2.467   1.919 -0.3510  0.2406  0.0892
  567PF6     F4 7614   1.968   2.515   1.781  0.1994  0.2023 -0.0925
  567PF6     F5 7615   1.830   2.338   1.793 -0.0596 -0.5553  0.6707
  567PF6     F6 7616   1.844   2.635   1.937  0.6985  0.2339  0.2680
  568PF6     P1 7617   2.143   1.925   2.570  0.1921 -0.2355 -0.1981
  568PF6     F1 7618   2.046   1.843   2.463  0.1614 -0.1394 -0.5711
  568PF6     F2 7619   2.232   2.004   2.680 -0.0773  0.3187  0.1658
  568PF6     F3 7620   2.148   1.793   2.662  0.0753 -0.6987  0.2509
  568PF6     F4 7621   2.128   2.056   2.483 -0.0117 -0.3247 -0.0690
  568PF6     F5 7622   2.014   1.971   2.652  0.3941  0.3196  0.0799
  568PF6     F6 7623   2.273   1.894   2.491 -0.4696  0.4816 -0.1130
  569PF6     P1 7624   3.784   2.522   2.331  0.0406 -0.0719  0.2150
  569PF6     F1 7625   3.886   2.491   2.203 -0.3737 -0.1323 -0.2221
  569PF6     F2 7626   3.692   2.547   2.462  0.5652 -0.1792  0.4575
  569PF6     F3 7627   3.885   2.633   2.383 -0.8799  0.1235 -0.2986
  569PF6     F4 7628   3.684   2.403   2.272 -0.0440 -0.5258 -0.7492
  569PF6     F5 7629   3.868   2.409   2.420  0.3132  0.2606  0.2718
  569PF6     F6 7630   3.710   2.640   2.245 -0.6829 -0.0245 -0.4025
  570PF6     P1 7631   1.483   4.382   0.594  0.1345 -0.1652 -0.0086
  570PF6     F1 7632   1.531   0.026   0.668 -0.2907 -0.3233 -0.2421
  570PF6     F2 7633   1.432   4.250   0.515 -0.1923  0.3345 -0.2139
  570PF6     F3 7634   1.554   4.433   0.456  0.0537  0.5739 -0.3345
  570PF6     F4 7635   1.415   4.325   0.726  0.0633 -0.4338  0.1844
  570PF6     F5 7636   1.346   4.462   0.552  0.2354  0.2856 -0.1674
  570PF6     F6 7637   1.620   4.308   0.634 -0.2509 -0.4387  0.7906
  571PF6     P1 7638   0.831   0.344   3.829  0.5787 -0.0616  0.2779
  571PF6     F1 7639   0.840   0.266   3.694 -0.2056  0.1619 -0.1447
  571PF6     F2 7640   0.824   0.432   3.961  0.5481  0.1238 -0.6763
  571PF6     F3 7641   0.876   0.477   3.746  0.1777 -0.2074 -0.1186
  571PF6     F4 7642   0.799   0.210   3.912  0.1004  0.4637  0.4469
  571PF6     F5 7643   0.988   0.323   3.870  0.5353  0.5271 -0.2364
  571PF6     F6 7644   0.676   0.358   3.803 -0.1164 -0.1665 -0.4799
  572PF6     P1 7645   1.578   4.467   2.779  0.0060 -0.1504 -0.5999
  572PF6     F1 7646   1.696   4.403   2.853 -0.4525  0.2250 -0.2773
  572PF6     F2 7647   1.457   0.050   2.702 -0.7336  0.9603 -0.7256
  572PF6     F3 7648   1.678   0.013   2.662 -0.0563  0.3838 -0.4218
  572PF6     F4 7649   1.478   4.421   2.903 -0.0149 -0.1162  0.1108
  572PF6     F5 7650   1.613   0.107   2.850  0.3117  0.1025 -0.4214
  572PF6     F6 7651   1.549   4.324   2.695 -0.0675  0.1491 -0.0301
  573PF6     P1 7652   0.890   1.756   2.716 -0.4204  0.1314 -0.0214
  573PF6     F1 7653   1.017   1.804   2.802 -0.0348  0.1495  0.2950
  573PF6     F2 7654   0.760   1.723   2.626  0.3949 -0.1623 -0.4284
  573PF6     F3 7655   0.977   1.798   2.590 -0.0499 -0.3693 -0.2643
  573PF6     F4 7656   0.821   1.721   2.855 -0.2638 -0.0617  0.1747
  573PF6     F5 7657   0.844   1.904   2.723  0.0847 -0.2540  0.4848
  573PF6     F6 7658   0.940   1.604   2.699  0.0172 -0.7034  0.0920
  574PF6     P1 7659   1.966   1.620   0.055 -0.1108 -0.2050 -0.3297
  574PF6     F1 7660   1.963   1.621   0.217 -0.3852  0.2667  0.1837
  574PF6     F2 7661   1.969   1.610   4.391  0.2019  0.0759 -0.0330
  574PF6     F3 7662   1.832   1.705   0.048  0.0622  0.3070  0.1976
  574PF6     F4 7663   2.098   1.525   0.071 -0.6656 -0.3885 -0.0887
  574PF6     F5 7664   1.868   1.492   0.061 -0.2482 -0.0860  0.2909
  574PF6     F6 7665   2.051   1.758   0.054  0.3800  0.6381  0.4891
  575PF6     P1 7666   3.698   3.927   3.524 -0.0608  0.3546 -0.1836
  575PF6     F1 7667   3.671   4.007   3.659 -0.1731  0.3855 -0.3743
  575PF6     F2 7668   3.723   3.842   3.395  0.1601  0.3224  0.3876
  575PF6     F3 7669   3.760   3.810   3.611  0.6398  0.6712  0.0256
  575PF6     F4 7670   3.652   4.058   3.440  0.3059 -0.4444 -0.2701
  575PF6     F5 7671   3.847   3.990   3.507  0.3417  0.5050 -0.1433
  575PF6     F6 7672   3.553   3.868   3.534 -0.0735  0.2188 -0.3699
  576PF6     P1 7673   4.325   3.227   2.515  0.3653  0.6099  0.8595
  576PF6     F1 7674   4.340   3.089   2.433 -0.3033 -0.3013 -0.0268
  576PF6     F2 7675   4.300   3.361   2.601  0.5889 -0.3343 -0.9166
  576PF6     F3 7676   4.220   3.148   2.611  0.3579 -0.1403 -0.3474
  576PF6     F4 7677   4.431   3.297   2.430 -0.0833  0.2915 -0.1009
  576PF6     F5 7678   4.206   3.278   2.415 -0.3079  0.7243 -0.4394
  576PF6     F6 7679   4.442   3.181   2.615 -0.2858  0.3780 -0.1065
  577PF6     P1 7680   1.876   3.178   1.067 -0.3120 -0.2240 -0.0087
  577PF6     F1 7681   1.797   3.171   0.931  0.8440 -0.2782  0.0764
  577PF6     F2 7682   1.949   3.189   1.205 -0.1377 -0.2094 -0.0271
  577PF6     F3 7683   1.762   3.274   1.119  0.3814 -0.2103  0.4209
  577PF6     F4 7684   1.984   3.079   1.010  0.4185 -0.0691 -0.1298
  577PF6     F5 7685   1.962   3.298   1.013  0.1039  0.6352 -0.0450
  577PF6     F6 7686   1.794   3.049   1.118 -0.3774  0.0476  0.2499
  578PF6     P1 7687   3.121   4.004   2.404  0.2760 -0.3100  0.3788
  578PF6     F1 7688   3.164   4.064   2.256 -0.4685  0.2000  0.3512
  578PF6     F2 7689   3.071   3.946   2.543  0.2630 -0.0266 -0.2133
  578PF6     F3 7690   3.185   4.131   2.476 -0.7704 -0.0091  0.5175
  578PF6     F4 7691   3.060   3.876   2.327  0.2782 -0.5516  0.0769
  578PF6     F5 7692   3.255   3.931   2.417  0.1277 -0.1343 -0.4715
  578PF6     F6 7693   2.984   4.080   2.388  0.1262 -0.1874 -0.1982
  579PF6     P1 7694   1.434   3.633   3.470 -0.2249  0.3202  0.4439
  579PF6     F1 7695   1.583   3.593   3.418  0.1149  0.0778 -0.2283
  579PF6     F2 7696   1.283   3.666   3.517  0.3300  0.2370 -0.0230
  579PF6     F3 7697   1.452   3.517   3.580  0.2928 -0.0363 -0.1984
  579PF6     F4 7698   1.417   3.738   3.352 -0.2514  0.1772 -0.0270
  579PF6     F5 7699   1.378   3.521   3.368 -0.0571  0.2569  0.1441
  579PF6     F6 7700   1.483   3.747   3.574 -0.1307 -0.2262  0.2440
  580PF6     P1 7701   2.023   4.344   4.096  0.0799 -0.0489 -0.2063
  580PF6     F1 7702   1.937   4.439   4.192 -0.4613  0.7207 -0.7713
  580PF6     F2 7703   2.120   4.254   4.001 -0.2270 -0.4017  0.1749
  580PF6     F3 7704   1.942   4.407   3.970  0.1066 -0.3220 -0.0466
  580PF6     F4 7705   2.089   4.285   4.230 -0.1771  0.0531 -0.0138
  580PF6     F5 7706   1.913   4.229   4.104  0.3618  0.0466  0.5355
  580PF6     F6 7707   2.129   4.461   4.092  0.5707  0.4950  0.3535
  581PF6     P1 7708   3.014   2.010   3.121  0.2864  0.3863  0.5326
  581PF6     F1 7709   2.940   1.879   3.146 -0.6156  0.6608  0.1819
  581PF6     F2 7710   3.083   2.151   3.099 -0.5511  0.1561  0.1637
  581PF6     F3 7711   2.902   2.047   3.017  0.0408 -0.3180 -0.3203
  581PF6     F4 7712   3.123   1.962   3.233  0.3889  0.0534  0.1677
  581PF6     F5 7713   3.097   1.939   3.001 -0.6670  0.4453  0.3046
  581PF6     F6 7714   2.931   2.079   3.241  0.5971  0.5133 -0.3142
  582PF6     P1 7715   0.691   0.540   2.174 -0.4228 -0.3435 -0.0938
  582PF6     F1 7716   0.834   0.612   2.146  0.4422  0.2613 -0.6090
  582PF6     F2 7717   0.546   0.473   2.192 -0.0513 -0.2988 -0.0578
  582PF6     F3 7718   0.688   0.595   2.335  0.0521  0.6231 -0.8079
  582PF6     F4 7719   0.697   0.493   2.018 -0.1498  0.1323  0.3368
  582PF6     F5 7720   0.769   0.406   2.219  0.2307  0.2540  0.0233
  582PF6     F6 7721   0.617   0.676   2.134 -0.4281  0.1363 -0.2005
  583PF6     P1 7722   1.834   0.697   3.583  0.2411 -0.4369  0.4578
  583PF6     F1 7723   1.810   0.624   3.448  0.3470  0.4958  0.1901
  583PF6     F2 7724   1.856   0.776   3.721 -0.4976  0.1109  0.1023
  583PF6     F3 7725   1.680   0.736   3.589 -0.0946  0.2414  0.5823
  583PF6     F4 7726   1.989   0.658   3.576  0.5504  0.1142  0.7001
  583PF6     F5 7727   1.854   0.841   3.506  0.0006  0.8951 -0.6786
  583PF6     F6 7728   1.803   0.563   3.661 -0.4542  0.7363  0.5024
  584PF6     P1 7729   1.319   2.510   0.788 -0.1392 -0.2076  0.1915
  584PF6     F1 7730   1.294   2.600   0.918  1.1369  0.1770  0.0006
  584PF6     F2 7731   1.347   2.424   0.654  0.2420  0.4810 -0.6519
  584PF6     F3 7732   1.350   2.641   0.700 -0.8515  0.1448  0.1018
  584PF6     F4 7733   1.279   2.379   0.865 -0.2206  0.5023 -0.5491
  584PF6     F5 7734   1.159   2.523   0.753  0.3527  0.0693 -0.3995
  584PF6     F6 7735   1.473   2.495   0.820 -0.2767  0.1912 -0.2481
  585PF6     P1 7736   3.253   0.419   3.271 -0.5231  0.1396  0.1790
  585PF6     F1 7737   3.145   0.313   3.302  0.0051 -0.2588  0.0633
  585PF6     F2 7738   3.357   0.534   3.248 -0.2467 -0.0954  0.2218
  585PF6     F3 7739   3.376   0.316   3.295 -0.6634 -0.6218  0.0997
  585PF6     F4 7740   3.142   0.527   3.250  0.3167  0.4026 -0.1749
  585PF6     F5 7741   3.268   0.448   3.434  0.4999  0.4147  0.0215
  585PF6     F6 7742   3.244   0.382   3.118 -0.4903  0.4055  0.4160
  586PF6     P1 7743   0.188   3.056   3.040 -0.2798 -0.5958  0.0155
  586PF6     F1 7744   0.055   3.072   3.124  0.0362  0.2840  0.0420
  586PF6     F2 7745   0.321   3.048   2.957  0.2239 -0.3479  0.8301
  586PF6     F3 7746   0.100   3.022   2.912 -0.1185  0.1901 -0.1419
  586PF6     F4 7747   0.277   3.093   3.166  0.7982  0.4400  0.0953
  586PF6     F5 7748   0.193   2.900   3.067  0.4762 -0.0767 -0.0141
  586PF6     F6 7749   0.175   3.213   2.998 -0.4301 -0.1334  0.0833
  587PF6     P1 7750   2.920   3.990   0.981  0.0661 -0.2505  0.0066
  587PF6     F1 7751   3.008   4.039   1.108 -0.0856 -0.1978  0.1957
  587PF6     F2 7752   2.830   3.941   0.858  0.1039  0.6299  0.4357
  587PF6     F3 7753   2.964   3.839   1.001  0.6529  0.2510 -0.0938
  587PF6     F4 7754   2.872   4.141   0.961  0.2321  0.2731  0.0190
  587PF6     F5 7755   3.041   4.015   0.877  0.0128  0.0314 -0.3871
  587PF6     F6 7756   2.804   3.965   1.082  0.1173  0.0014 -0.0339
  588PF6     P1 7757   3.016   0.861   1.482  0.1418 -0.1906  0.4062
  588PF6     F1 7758   3.163   0.918   1.461 -0.0075  0.0474  0.2776
  588PF6     F2 7759   2.869   0.804   1.511  0.5675  0.0319 -0.4843
  588PF6     F3 7760   3.033   0.894   1.643  0.1409 -0.1411  0.1121
  588PF6     F4 7761   2.997   0.821   1.327 -0.0221  0.3035  0.5005
  588PF6     F5 7762   3.078   0.718   1.512 -0.5692  0.0698  0.6055
  588PF6     F6 7763   2.952   1.010   1.462  0.0392  0.4434 -0.1975
  589PF6     P1 7764   0.137   3.879   3.070  0.0267 -0.3167 -0.5258
  589PF6     F1 7765   0.018   3.924   2.970 -0.4561 -0.3566 -0.3122
  589PF6     F2 7766   0.257   3.838   3.175 -0.4879  0.3618  0.3032
  589PF6     F3 7767   0.036   3.781   3.154 -0.5992  0.1474  0.0524
  589PF6     F4 7768   0.234   3.979   2.991 -0.1371 -0.0069 -0.4085
  589PF6     F5 7769   0.100   3.997   3.173  0.3589 -0.0214  0.3014
  589PF6     F6 7770   0.172   3.764   2.971 -0.0062  0.3362  0.2131
  590PF6     P1 7771   2.354   0.480   4.462 -0.3620 -0.3717 -0.0909
  590PF6     F1 7772   2.439   0.410   4.350  0.1681 -0.6345 -0.2515
  590PF6     F2 7773   2.271   0.554   0.086  0.2189  0.0068 -0.3072
  590PF6     F3 7774   2.473   0.586   4.473  0.6231  0.3395 -0.3205
  590PF6     F4 7775   2.251   0.357   4.463 -0.3005 -0.1683 -0.7711
  590PF6     F5 7776   2.434   0.395   0.068  0.9666 -0.1998 -0.4783
  590PF6     F6 7777   2.278   0.571   4.355 -0.6555  0.0071 -0.0696
  591PF6     P1 7778   2.072   0.776   2.484 -0.3603  0.0092  0.2139
  591PF6     F1 7779   2.230   0.755   2.498 -0.2512  0.2436 -0.7587
  591PF6     F2 7780   1.913   0.808   2.459  0.5983 -0.0786 -1.6996
  591PF6     F3 7781   2.036   0.688   2.616 -0.4146 -0.0719 -0.0961
  591PF6     F4 7782   2.101   0.864   2.356  0.5715 -0.4352  0.8299
  591PF6     F5 7783   2.067   0.643   2.394  0.0110  0.5177  0.7039
  591PF6     F6 7784   2.081   0.906   2.568 -0.2888  0.6300 -0.6004
  592PF6     P1 7785   1.094   1.030   0.593 -0.3413  0.1883 -0.1202
  592PF6     F1 7786   1.099   1.186   0.559  0.3177  0.5782  0.3635
  592PF6     F2 7787   1.095   0.876   0.633 -0.2121  0.5729 -0.1454
  592PF6     F3 7788   1.113   1.061   0.749  0.2893 -0.6743 -0.0883
  592PF6     F4 7789   1.077   0.999   0.440 -0.6710 -0.1834 -0.1933
  592PF6     F5 7790   1.253   1.030   0.578  0.4577  0.4112 -0.4951
  592PF6     F6 7791   0.932   1.032   0.608 -0.1996 -0.6896  0.0452
  593PF6     P1 7792   4.228   0.604   4.053 -0.1321  0.2557  0.4707
  593PF6     F1 7793   4.323   0.718   4.116 -0.1152  0.2481 -0.2685
  593PF6     F2 7794   4.123   0.494   3.994 -0.0107 -0.8418 -0.0548
  593PF6     F3 7795   4.345   0.497   4.054 -0.1509 -0.4775  0.1703
  593PF6     F4 7796   4.108   0.721   4.049  0.0564  0.1834  0.7331
  593PF6     F5 7797   4.279   0.647   3.913 -0.6757  0.6115  0.6125
  593PF6     F6 7798   4.182   0.564   4.200  0.1360  0.3226  0.2732
  594PF6     P1 7799   0.175   2.904   4.268 -0.4288  0.0563 -0.1164
  594PF6     F1 7800   0.266   2.779   4.321  0.1702 -0.7442  0.7657
  594PF6     F2 7801   0.090   3.023   4.199 -0.1378 -0.2922 -0.6384
  594PF6     F3 7802   0.040   2.837   4.315 -0.1652  0.3919 -0.1489
  594PF6     F4 7803   0.316   2.966   4.221 -0.5572 -0.2251  0.4101
  594PF6     F5 7804   0.163   2.833   4.123  0.6197  0.3618 -0.5446
  594PF6     F6 7805   0.197   2.973   4.412  0.4816 -0.0703  0.0258
  595PF6     P1 7806   3.177   3.368   1.167 -0.1815 -0.1422  0.4216
  595PF6     F1 7807   3.250   3.222   1.180  0.4212 -0.1395 -0.3296
  595PF6     F2 7808   3.117   3.510   1.150 -0.5009 -0.2555 -0.3997
  595PF6     F3 7809   3.080   3.318   1.045  0.4482 -0.4334 -0.1803
  595PF6     F4 7810   3.260   3.423   1.294 -0.3980  0.5414 -0.5094
  595PF6     F5 7811   3.293   3.407   1.062 -0.2844 -0.7071 -0.4296
  595PF6     F6 7812   3.062   3.318   1.265  0.2986 -0.1397 -0.3054
  596PF6     P1 7813   4.472   3.887   1.264 -0.3412 -0.0394 -0.2245
  596PF6     F1 7814   4.456   3.817   1.415 -0.6491  0.2969  0.0818
  596PF6     F2 7815   0.004   3.958   1.122 -0.1271  0.1263 -0.4860
  596PF6     F3 7816   0.122   3.936   1.313  0.2221 -0.2699  0.3388
  596PF6     F4 7817   4.330   3.830   1.221 -0.1682  0.3394 -0.2888
  596PF6     F5 7818   4.400   4.016   1.321  0.0281 -0.1591 -0.9883
  596PF6     F6 7819   0.038   3.752   1.213  0.0527 -0.0091  0.2099
  597PF6     P1 7820   1.241   0.976   1.441  0.2220 -0.0144  0.0280
  597PF6     F1 7821   1.194   1.130   1.476 -0.0376  0.5235  0.1551
  597PF6     F2 7822   1.293   0.829   1.405  0.3655 -0.1565  0.5919
  597PF6     F3 7823   1.373   1.033   1.358  0.0156  0.3605  0.0026
  597PF6     F4 7824   1.117   0.919   1.528  0.2854  0.5847  0.2743
  597PF6     F5 7825   1.151   0.975   1.312 -0.0862 -0.3925 -0.2627
  597PF6     F6 7826   1.328   0.984   1.583 -0.4205 -0.1745  0.3592
  598PF6     P1 7827   2.916   2.345   1.239  0.0143 -0.1306  0.0150
  598PF6     F1 7828   3.004   2.210   1.248  0.0867 -0.5514 -0.3053
  598PF6     F2 7829   2.821   2.475   1.237 -0.0663  0.1207 -0.3216
  598PF6     F3 7830   3.016   2.405   1.128 -0.5564 -0.0300 -0.7378
  598PF6     F4 7831   2.815   2.282   1.344 -0.1409  0.8138 -0.0141
  598PF6     F5 7832   3.010   2.411   1.357 -0.0457  0.2003 -0.2089
  598PF6     F6 7833   2.828   2.288   1.115 -0.4881  0.4886  0.1553
  599PF6     P1 7834   2.638   1.069   0.450  0.4031  0.2757  0.0178
  599PF6     F1 7835   2.578   0.969   0.346  0.4108 -0.9022  0.6290
  599PF6     F2 7836   2.695   1.173   0.560 -0.0331 -0.6199 -0.0965
  599PF6     F3 7837   2.638   0.949   0.555 -0.8913  0.2416  0.4515
  599PF6     F4 7838   2.630   1.184   0.335 -0.2691  0.3429 -0.5452
  599PF6     F5 7839   2.492   1.114   0.500  0.0682  0.3099  0.7569
  599PF6     F6 7840   2.785   1.040   0.405  0.0361  0.7672  0.0464
  600PF6     P1 7841   0.105   1.426   3.303  0.3813  0.2774 -0.2329
  600PF6     F1 7842   0.092   1.270   3.327 -0.2448  0.1636 -0.6919
  600PF6     F2 7843   0.120   1.586   3.281 -0.4107 -0.0216  0.2899
  600PF6     F3 7844   0.131   1.399   3.145  0.6224 -0.1310  0.3517
  600PF6     F4 7845   0.086   1.454   3.460 -0.6492  0.2955  0.2804
  600PF6     F5 7846   0.263   1.418   3.321 -0.2610  0.3305 -0.1261
  600PF6     F6 7847   4.444   1.448   3.285 -0.1725 -0.4241  0.2710
  601PF6     P1 7848   1.914   1.097   1.022  0.6715  0.0590 -0.2646
  601PF6     F1 7849   1.899   1.232   1.106 -0.0415 -0.9354 -0.1885
  601PF6     F2 7850   1.930   0.961   0.942 -0.3040 -0.3309 -0.3324
  601PF6     F3 7851   2.040   1.069   1.110 -0.0335  0.3275  0.3170
  601PF6     F4 7852   1.792   1.138   0.931 -0.7333 -0.0913  0.2866
  601PF6     F5 7853   2.005   1.177   0.916  0.2739  0.2319 -0.7124
  601PF6     F6 7854   1.817   1.024   1.125  0.1703  0.0499 -0.3486
  602Li     Li1 7855   1.204   2.350   3.417 -0.3784 -0.2873 -0.8761
  603Li     Li1 7856   0.111   0.842   4.314  0.0408 -0.3603  0.7761
  604Li     Li1 7857   1.630   2.023   4.425 -0.2080  0.5117  0.9616
  605Li     Li1 7858   1.895   3.854   4.159  0.2134  0.7696 -0.8831
  606Li     Li1 7859   1.131   0.529   3.743  0.6410  0.2287  0.4248
  607Li     Li1 7860   0.316   3.440   2.648  0.2462  0.0026  0.8768
  608Li     Li1 7861   3.994   1.985   4.252 -1.4388 -0.0788 -0.9327
  609Li     Li1 7862   1.903   4.163   1.329  0.1389  0.0284  0.6979
  610Li     Li1 7863   3.055   2.657   0.969 -0.2218 -0.3620  0.9484
  611Li     Li1 7864   4.496   3.556   1.800 -0.9008  0.8253 -0.1707
  612Li     Li1 7865   1.460   1.997   1.086 -0.2042  0.5910  0.1097
  613Li     Li1 7866   2.175   1.321   3.622 -1.0060  0.2753  0.3132
  614Li     Li1 7867   3.989   4.096   3.414  0.0351 -0.3864  0.5386
  615Li     Li1 7868   3.819   1.574   0.877 -0.6194 -0.5210 -0.6356
  616Li     Li1 7869   2.695   0.677   3.868  0.2421 -0.0405  0.1079
  617Li     Li1 7870   0.120   3.718   0.118 -0.1246 -0.4290  0.8560
  618Li     Li1 7871   2.189   3.993   3.641  0.0752 -0.1128  0.8992
  619Li     Li1 7872   2.968   1.391   2.322 -0.1535  0.1383 -0.9906
  620Li     Li1 7873   3.103   3.521   3.678 -0.2624 -1.1386 -0.5339
  621Li     Li1 7874   4.022   3.813   2.516  0.0414 -0.3415  0.2418
  622Li     Li1 7875   2.596   3.841   2.709  0.5103  0.3958 -1.2829
  623Li     Li1 7876   1.689   1.475   2.062  0.1165 -0.2931 -0.6928
  624Li     Li1 7877   2.913   1.809   4.045  0.5133 -0.0759  1.0783
  625Li     Li1 7878   1.802   0.505   2.876 -1.0626 -0.0087  1.0843
  626Li     Li1 7879   4.298   2.795   0.234 -0.0092 -0.5809 -0.4250
  627Li     Li1 7880   0.557   0.523   1.418  1.0790 -1.0828 -0.2505
  628Li     Li1 7881   4.065   0.502   3.193 -1.0152  0.5602 -0.2424
  629Li     Li1 7882   2.159   3.026   1.341 -1.4015 -0.1867  0.5091
  630Li     Li1 7883   0.261   2.500   1.285  0.7313 -0.1202  0.2861
  631Li     Li1 7884   2.657   2.303   2.948 -0.9008 -0.7592  0.1027
  632Li     Li1 7885   0.338   0.944   2.672 -1.2291  0.5391 -0.6348
  633Li     Li1 7886   2.461   2.652   0.144  0.5611 -0.9940 -0.7449
  634Li     Li1 7887   3.656   3.349   2.051  0.6083 -0.4366  0.0320
  635Li     Li1 7888   1.083   0.603   2.697 -1.2113 -0.0097  0.5750
  636Li     Li1 7889   2.661   0.852   4.422  0.2031  0.3574 -0.2546
  637Li     Li1 7890   2.153   1.281   0.757 -1.2027 -0.1594 -1.6606
  638Li     Li1 7891   0.687   3.689   3.402  1.6393  0.0234 -0.5129
  639Li     Li1 7892   3.495   1.204   2.895  0.4722  0.4891 -0.2226
  640Li     Li1 7893   1.924   0.752   0.552  0.9574  1.2708 -0.0408
  641Li     Li1 7894   0.200   2.825   3.617 -0.9054  0.5461  0.0386
  642Li     Li1 7895   1.423   4.157   4.406  0.1611 -0.0598 -0.2403
  643Li     Li1 7896   3.788   3.025   3.369  0.7562  0.2676  0.7991
  644Li     Li1 7897   0.427   0.363   3.961  0.4623 -1.2534  0.3140
  645Li     Li1 7898   4.276   1.752   1.543 -0.4967  0.3976 -1.1535
  646Li     Li1 7899   0.604   2.485   2.620  1.1931 -0.1895 -1.3923
  647Li     Li1 7900   0.899   1.383   1.462  0.8424  0.0500 -0.0372
  648Li     Li1 7901   3.517   3.989   4.166  0.1747  0.1638  1.1976
  649Li     Li1 7902   2.515   1.916   1.677  1.0311 -0.3533  0.0003
  650Li     Li1 7903   2.636   4.484   1.081 -0.0546 -0.1307 -0.0408
  651Li     Li1 7904   0.924   3.086   0.146  0.0070  0.8498 -0.3036
  652Li     Li1 7905   1.920   2.412   2.439 -0.1383 -0.4795  0.7079
  653Li     Li1 7906   4.166   0.462   1.812 -0.7633 -0.3626  0.2910
   4.49598   4.49598   4.49598
