[ moleculetype ]
; name       nrexcl
EC                3

[ atoms ]
;  nr   type  resnr  residu   atom   cgnr    charge
    1   CC2       1  EC       C1        1    0.1500
    2   CC2       1  EC       C2        1    0.1500
    3   OS        1  EC       O1        1   -0.4600
    4   HC2       1  EC       H1        1    0.0600
    5   HC2       1  EC       H2        1    0.0600
    6   OS        1  EC       O2        1   -0.4600
    7   HC2       1  EC       H3        1    0.0600
    8   HC2       1  EC       H4        1    0.0600
    9   CC        1  EC       C3        1    1.0000
   10   OC        1  EC       O3        1   -0.6200

[ bonds ]
;  ai    aj   func    b0        kb
    1     2      1    0.15290   224260.0
    1     3      1    0.14100   267780.0
    2     6      1    0.14100   267780.0
    3     9      1    0.13270   179080.0
    6     9      1    0.13270   179080.0
    9    10      1    0.12290   476980.0

[ constraints ]
;  ai    aj   func    b0
    1     4      1    0.10900
    1     5      1    0.10900
    2     7      1    0.10900
    2     8      1    0.10900

[ angles ]
;  ai    aj    ak   func    th0        cth
    2     1     3      1    109.500    418.400
    2     1     4      1    110.700    313.800
    2     1     5      1    110.700    313.800
    3     1     4      1    109.500    292.900
    3     1     5      1    109.500    292.900
    4     1     5      1    107.800    276.100
    1     2     6      1    109.500    418.400
    1     2     7      1    110.700    313.800
    1     2     8      1    110.700    313.800
    6     2     7      1    109.500    292.900
    6     2     8      1    109.500    292.900
    7     2     8      1    107.800    276.100
    1     3     9      1    116.900    694.500
    2     6     9      1    116.900    694.500
    3     9     6      1    110.600      0.000
    3     9    10      1    123.400    694.500
    6     9    10      1    123.400    694.500

[ dihedrals ]
;  ai    aj    ak    al   func    coefficients
    3     1     2     6      5   -2.30120   -0.00000   -0.00000    0.00000
    3     1     2     7      5   -0.00010   -0.00000    1.95810    0.00000
    3     1     2     8      5   -0.00010   -0.00000    1.95810    0.00000
    4     1     2     6      5   -0.00010   -0.00000    1.95810    0.00000
    4     1     2     7      5    0.00000    0.00000    1.25520    0.00000
    4     1     2     8      5    0.00000    0.00000    1.25520    0.00000
    5     1     2     6      5   -0.00010   -0.00000    1.95810    0.00000
    5     1     2     7      5    0.00000    0.00000    1.25520    0.00000
    5     1     2     8      5    0.00000    0.00000    1.25520    0.00000
    2     1     3     9      5   -5.10445   -0.52720    1.76565    0.00000
    4     1     3     9      5   -0.00005   -0.00000    0.82845    0.00000
    5     1     3     9      5   -0.00005   -0.00000    0.82845    0.00000
    1     2     6     9      5   -5.10445   -0.52720    1.76565    0.00000
    7     2     6     9      5   -0.00005   -0.00000    0.82845    0.00000
    8     2     6     9      5   -0.00005   -0.00000    0.82845    0.00000
    1     3     9     6      5   -0.00000   -0.00000   -0.00000    0.00000
    1     3     9    10      5   -0.00000   20.92000   -0.00000    0.00000
    2     6     9     3      5   -0.00000   -0.00000   -0.00000    0.00000
    2     6     9    10      5   -0.00000   20.92000   -0.00000    0.00000

[ pairs ]
;   ai   aj   func
    3     6      1
    3     7      1
    3     8      1
    4     6      1
    4     7      1
    4     8      1
    5     6      1
    5     7      1
    5     8      1
    2     9      1
    4     9      1
    5     9      1
    1     9      1
    7     9      1
    8     9      1
    1     6      1
    1    10      1
    2     3      1
    2    10      1

