[ moleculetype ]
; name       nrexcl
EMC               3

[ atoms ]
;  nr   type  resnr  residu   atom   cgnr    charge
    1   CC3       1  EMC      C1        1    0.0900
    2   CC2       1  EMC      C2        1    0.1500
    3   CC        1  EMC      C3        1    1.0000
    4   OS        1  EMC      O1        1   -0.4600
    5   OS        1  EMC      O2        1   -0.4600
    6   OC        1  EMC      O3        1   -0.6200
    7   HC3       1  EMC      H1        1    0.0600
    8   HC3       1  EMC      H2        1    0.0600
    9   HC3       1  EMC      H3        1    0.0600
   10   CH3       1  EMC      C4        1   -0.1800
   11   HC2       1  EMC      H4        1    0.0600
   12   HC2       1  EMC      H5        1    0.0600
   13   HC        1  EMC      H6        1    0.0600
   14   HC        1  EMC      H7        1    0.0600
   15   HC        1  EMC      H8        1    0.0600

[ bonds ]
;  ai    aj   func    b0        kb
    1     4      1    0.14100   267780.0
    2     5      1    0.14100   267780.0
    2    10      1    0.15290   224260.0
    3     4      1    0.13270   179080.0
    3     5      1    0.13270   179080.0
    3     6      1    0.12290   476980.0

[ constraints ]
;  ai    aj   func    b0
    1     7      1    0.10900
    1     8      1    0.10900
    1     9      1    0.10900
    2    11      1    0.10900
    2    12      1    0.10900
   10    13      1    0.10900
   10    14      1    0.10900
   10    15      1    0.10900

[ angles ]
;  ai    aj    ak   func    th0        cth
    4     1     7      1    109.500    292.900
    4     1     8      1    109.500    292.900
    4     1     9      1    109.500    292.900
    7     1     8      1    107.800    276.100
    7     1     9      1    107.800    276.100
    8     1     9      1    107.800    276.100
    5     2    10      1    109.500    418.400
    5     2    11      1    109.500    292.900
    5     2    12      1    109.500    292.900
   10     2    11      1    110.700    313.800
   10     2    12      1    110.700    313.800
   11     2    12      1    107.800    276.100
    4     3     5      1    110.600      0.000
    4     3     6      1    123.400    694.500
    5     3     6      1    123.400    694.500
    1     4     3      1    116.900    694.500
    2     5     3      1    116.900    694.500
    2    10    13      1    110.700    313.800
    2    10    14      1    110.700    313.800
    2    10    15      1    110.700    313.800
   13    10    14      1    107.800    276.100
   13    10    15      1    107.800    276.100
   14    10    15      1    107.800    276.100

[ dihedrals ]
;  ai    aj    ak    al   func    coefficients
    7     1     4     3      5   -0.00005   -0.00000    0.82845    0.00000
    8     1     4     3      5   -0.00005   -0.00000    0.82845    0.00000
    9     1     4     3      5   -0.00005   -0.00000    0.82845    0.00000
   10     2     5     3      5   -5.10445   -0.52720    1.76565    0.00000
   11     2     5     3      5   -0.00005   -0.00000    0.82845    0.00000
   12     2     5     3      5   -0.00005   -0.00000    0.82845    0.00000
    5     2    10    13      5   -0.00010   -0.00000    1.95810    0.00000
    5     2    10    14      5   -0.00010   -0.00000    1.95810    0.00000
    5     2    10    15      5   -0.00010   -0.00000    1.95810    0.00000
   11     2    10    13      5    0.00000    0.00000    1.25520    0.00000
   11     2    10    14      5    0.00000    0.00000    1.25520    0.00000
   11     2    10    15      5    0.00000    0.00000    1.25520    0.00000
   12     2    10    13      5    0.00000    0.00000    1.25520    0.00000
   12     2    10    14      5    0.00000    0.00000    1.25520    0.00000
   12     2    10    15      5    0.00000    0.00000    1.25520    0.00000
    5     3     4     1      5   -0.00000   -0.00000   -0.00000    0.00000
    6     3     4     1      5   -0.00000   20.92000   -0.00000    0.00000
    4     3     5     2      5   -0.00000   -0.00000   -0.00000    0.00000
    6     3     5     2      5   -0.00000   20.92000   -0.00000    0.00000

[ pairs ]
;   ai   aj   func
    7     3      1
    8     3      1
    9     3      1
   10     3      1
   11     3      1
   12     3      1
    5    13      1
    5    14      1
    5    15      1
   11    13      1
   11    14      1
   11    15      1
   12    13      1
   12    14      1
   12    15      1
    5     1      1
    6     1      1
    4     2      1
    6     2      1

