EC_EMC_1-1_149-400_52NaPF6
 7906
    1EC      C1    1   3.480   2.730   4.413 -0.3432 -0.2462 -0.5553
    1EC      C2    2   3.521   2.652   0.035  0.2292  0.1509  0.5958
    1EC      O1    3   3.455   2.618   4.310 -0.1035 -0.3392 -0.0104
    1EC      H1    4   3.570   2.783   4.383  0.5394 -1.2818  0.1752
    1EC      H2    5   3.396   2.797   4.431 -0.2725  0.8573 -3.8257
    1EC      O2    6   3.550   2.505   4.502  0.1938  0.2830  0.4634
    1EC      H3    7   3.439   2.637   0.105 -0.0214  2.4602  0.8701
    1EC      H4    8   3.609   2.700   0.077  0.8794 -0.2318 -0.2987
    1EC      C3    9   3.499   2.480   4.360 -0.0417  0.0342  0.3669
    1EC      O3   10   3.519   2.383   4.287  0.5295  0.0614 -0.1675
    2EC      C1   11   1.459   1.498   0.951  0.2679 -0.2564 -0.4946
    2EC      C2   12   1.514   1.647   0.980 -0.2202 -0.3200  0.3760
    2EC      O1   13   1.307   1.505   0.987  0.5440  0.2141  0.2933
    2EC      H1   14   1.501   1.430   1.026  1.0380  0.7268 -0.0082
    2EC      H2   15   1.481   1.464   0.850 -1.4114  2.2800 -1.8188
    2EC      O2   16   1.389   1.715   1.027  0.6373 -0.6374  0.8103
    2EC      H3   17   1.550   1.707   0.896 -0.3093  0.5468  0.9385
    2EC      H4   18   1.585   1.658   1.062 -1.7292  0.8808  1.5777
    2EC      C3   19   1.262   1.648   1.011  0.9820  0.5932 -0.5663
    2EC      O3   20   1.159   1.685   1.078 -0.2645  0.6507 -0.4816
    3EC      C1   21   1.223   1.857   0.740 -0.2422 -0.1425 -0.2406
    3EC      C2   22   1.098   1.955   0.701 -0.4817 -0.3432 -0.2154
    3EC      O1   23   1.155   1.720   0.732 -0.7409  0.5413  0.6021
    3EC      H1   24   1.250   1.883   0.842 -1.2091 -1.1081  0.2786
    3EC      H2   25   1.309   1.854   0.673 -0.8243 -0.4058 -0.9914
    3EC      O2   26   0.992   1.858   0.660 -0.5061 -0.5629 -0.3685
    3EC      H3   27   1.114   2.007   0.606  1.3881 -0.9230 -0.2365
    3EC      H4   28   1.065   2.012   0.788  1.7413 -1.6287  1.5310
    3EC      C3   29   1.022   1.713   0.678  0.1839 -0.0751  0.0481
    3EC      O3   30   0.950   1.614   0.676  0.2185  0.1535 -0.7069
    4EC      C1   31   0.810   2.182   0.606 -0.2484  0.0211  0.0742
    4EC      C2   32   0.691   2.286   0.584 -0.7256 -0.3223 -0.3464
    4EC      O1   33   0.898   2.250   0.715  0.4929 -0.1906  0.6659
    4EC      H1   34   0.870   2.167   0.517 -0.3603 -0.3121  0.0543
    4EC      H2   35   0.777   2.080   0.625  1.9072 -0.9273 -0.9929
    4EC      O2   36   0.732   2.403   0.682 -0.1204  0.1513  0.0833
    4EC      H3   37   0.602   2.243   0.630  0.3042 -1.9377  0.2204
    4EC      H4   38   0.677   2.316   0.481  0.7268  1.0785 -0.1811
    4EC      C3   39   0.842   2.378   0.762 -0.8584 -0.0056 -0.1982
    4EC      O3   40   0.904   2.466   0.824  0.7617  0.6999 -0.6971
    5EC      C1   41   1.132   3.394   0.115 -0.0694 -0.3042 -0.0345
    5EC      C2   42   1.106   3.312   4.484  0.7059  0.3063 -0.7088
    5EC      O1   43   1.160   3.536   0.068  0.6571  0.7874  0.2604
    5EC      H1   44   1.223   3.361   0.165 -1.5167 -1.1670  2.1979
    5EC      H2   45   1.061   3.379   0.197 -0.2143  0.4573 -0.0119
    5EC      O2   46   1.142   3.421   4.381  1.0179  0.4295  0.4891
    5EC      H3   47   1.004   3.276   4.474 -1.0246  3.8270  2.0986
    5EC      H4   48   1.173   3.226   4.481  2.7091  1.4892  3.0707
    5EC      C3   49   1.163   3.554   4.436 -0.1324 -0.0054  0.6989
    5EC      O3   50   1.205   3.657   4.386  0.2772 -0.1329  0.2780
    6EC      C1   51   3.774   1.099   3.672 -0.1054 -0.4766 -0.6270
    6EC      C2   52   3.790   1.130   3.516  0.3928  0.3213  0.4242
    6EC      O1   53   3.801   1.225   3.749 -0.1314 -0.5728  0.1996
    6EC      H1   54   3.852   1.032   3.708  0.9646  1.5931  1.0681
    6EC      H2   55   3.675   1.061   3.700  0.8828 -1.9628  1.0822
    6EC      O2   56   3.822   1.281   3.518  0.6389  0.1286  0.6876
    6EC      H3   57   3.705   1.093   3.459  1.8723 -5.2196  1.2083
    6EC      H4   58   3.874   1.079   3.470  1.2705  0.5619  1.6963
    6EC      C3   59   3.835   1.341   3.662  0.0069  0.7071 -0.4509
    6EC      O3   60   3.882   1.449   3.703  0.1386  0.0276 -0.4749
    7EC      C1   61   4.075   0.179   0.420 -0.7878 -0.9296  1.1193
    7EC      C2   62   4.209   0.180   0.500  0.5870 -0.5748 -0.6718
    7EC      O1   63   4.066   0.324   0.365  0.3708 -0.1716  0.7447
    7EC      H1   64   3.980   0.164   0.471 -1.4114  0.1251  0.3120
    7EC      H2   65   4.080   0.109   0.336  1.1038  0.5559 -0.0886
    7EC      O2   66   4.275   0.313   0.466  0.7488  0.1304  0.0995
    7EC      H3   67   4.279   0.102   0.472 -3.2050 -3.8711 -1.9857
    7EC      H4   68   4.185   0.157   0.604 -1.4703  1.5333 -0.5811
    7EC      C3   69   4.185   0.408   0.391 -0.1850 -1.2003 -0.3328
    7EC      O3   70   4.219   0.503   0.323 -0.5222 -0.3898  0.1719
    8EC      C1   71   1.733   3.490   3.630  0.1212  0.4771 -0.1312
    8EC      C2   72   1.811   3.597   3.546  0.1147  0.1711 -0.5735
    8EC      O1   73   1.586   3.533   3.623 -0.1887  0.3877  0.2473
    8EC      H1   74   1.763   3.478   3.734  1.4580  0.2457 -0.5193
    8EC      H2   75   1.743   3.394   3.580 -1.8858  0.0441  0.2200
    8EC      O2   76   1.699   3.692   3.498  0.4736 -0.1937 -0.6299
    8EC      H3   77   1.845   3.551   3.453  1.5669 -0.2297  0.1261
    8EC      H4   78   1.884   3.653   3.604 -1.6090  1.3518  0.5620
    8EC      C3   79   1.567   3.656   3.546  0.4660  0.4015 -0.7732
    8EC      O3   80   1.463   3.726   3.538 -0.1961  0.4948  0.0052
    9EC      C1   81   2.875   1.714   2.070  0.0282  0.8244 -0.5240
    9EC      C2   82   2.966   1.841   2.036 -0.0429 -0.1741 -0.5578
    9EC      O1   83   2.948   1.600   2.002  0.3410 -0.5641  0.1975
    9EC      H1   84   2.776   1.711   2.025  0.1900 -2.0106 -0.8974
    9EC      H2   85   2.854   1.703   2.177 -1.7427 -1.1031 -0.9934
    9EC      O2   86   3.066   1.790   1.934  0.5857  0.6676 -0.4344
    9EC      H3   87   3.009   1.877   2.129 -1.6713 -2.3809  1.1706
    9EC      H4   88   2.910   1.924   1.993  1.0293 -0.8197 -3.4390
    9EC      C3   89   3.071   1.642   1.929  0.0004  0.3857  0.8968
    9EC      O3   90   3.135   1.580   1.843  0.6291  0.2856  0.2247
   10EC      C1   91   1.970   1.022   1.531  0.4015  0.6512  0.1544
   10EC      C2   92   2.005   0.866   1.556 -0.7675 -0.5175 -0.2083
   10EC      O1   93   2.081   1.063   1.436 -0.0151  0.2713 -0.5951
   10EC      H1   94   1.962   1.072   1.627  2.2049  0.7054  0.3153
   10EC      H2   95   1.872   1.031   1.484  0.0013 -3.3528 -0.1258
   10EC      O2   96   2.115   0.836   1.456  0.0536 -0.0125  0.4002
   10EC      H3   97   1.925   0.796   1.529 -1.5661  0.4906 -0.5298
   10EC      H4   98   2.042   0.850   1.657 -1.4176 -0.1262  0.0979
   10EC      C3   99   2.166   0.956   1.381  0.6191  0.4872  0.2885
   10EC      O3  100   2.257   0.965   1.306 -0.5847  0.2111  0.2333
   11EC      C1  101   3.251   3.203   1.583  0.0293 -0.1736 -0.4717
   11EC      C2  102   3.188   3.306   1.467 -0.7358  0.1899  0.5718
   11EC      O1  103   3.299   3.088   1.501 -0.2182 -0.2105 -0.7403
   11EC      H1  104   3.178   3.159   1.650  1.5166 -0.0143  1.3253
   11EC      H2  105   3.322   3.261   1.642 -0.9762  1.7560 -1.0766
   11EC      O2  106   3.224   3.229   1.340  0.5526 -0.0611  0.2469
   11EC      H3  107   3.241   3.400   1.478 -1.7676  0.7197  1.1666
   11EC      H4  108   3.081   3.320   1.481 -1.4142 -0.7841 -2.8520
   11EC      C3  109   3.303   3.101   1.354  0.4807  0.8150 -0.3094
   11EC      O3  110   3.301   3.012   1.272 -1.3496 -0.3565  0.1748
   12EC      C1  111   2.327   4.371   0.810  0.0790 -0.1973 -0.0051
   12EC      C2  112   2.476   4.314   0.776 -1.1801 -0.4369  0.2339
   12EC      O1  113   2.270   4.278   0.921  0.2336 -0.0298 -0.2186
   12EC      H1  114   2.266   4.370   0.720 -0.2970  0.9173  0.2172
   12EC      H2  115   2.353   4.473   0.838  1.8483 -0.1459 -1.6163
   12EC      O2  116   2.500   4.217   0.895 -0.1079 -0.5260  0.0305
   12EC      H3  117   2.537   4.404   0.779 -2.9781  0.8453  0.7063
   12EC      H4  118   2.481   4.267   0.678  1.7703 -0.4773  0.3336
   12EC      C3  119   2.385   4.196   0.985 -0.6447 -0.8303 -0.4711
   12EC      O3  120   2.386   4.121   1.082  0.4221  0.3082  0.4981
   13EC      C1  121   4.123   3.059   0.526  0.2003  0.4692  0.3422
   13EC      C2  122   3.976   3.010   0.586 -0.5627 -0.0648 -0.1819
   13EC      O1  123   4.218   3.034   0.642 -0.2753  0.0214 -0.8595
   13EC      H1  124   4.113   3.165   0.499 -3.2552 -0.2257 -1.6424
   13EC      H2  125   4.154   2.995   0.443  1.5090 -0.0646  1.2235
   13EC      O2  126   4.013   2.976   0.731 -0.3320  0.1512 -0.2550
   13EC      H3  127   3.950   2.921   0.529 -3.3443 -0.0660  0.9610
   13EC      H4  128   3.891   3.077   0.580  0.3259  1.0295 -0.8984
   13EC      C3  129   4.157   2.997   0.767  0.1266 -0.2234  0.1097
   13EC      O3  130   4.215   2.938   0.856 -0.4071  0.0170  0.5234
   14EC      C1  131   3.054   4.068   2.281 -0.2691  0.6112  0.6162
   14EC      C2  132   2.996   4.210   2.324 -0.6510  0.0149  1.3542
   14EC      O1  133   2.962   3.969   2.357 -0.0629 -0.6700  0.4070
   14EC      H1  134   3.156   4.076   2.318 -0.2215  1.9814  0.2152
   14EC      H2  135   3.045   4.056   2.173 -2.0682 -2.3807  0.9646
   14EC      O2  136   2.876   4.180   2.408 -0.3073 -0.1038  0.1852
   14EC      H3  137   2.980   4.273   2.237  0.0275  1.3359  2.1639
   14EC      H4  138   3.072   4.259   2.385 -0.7248  2.7846 -0.6092
   14EC      C3  139   2.859   4.036   2.442  0.1492 -0.7060 -0.8846
   14EC      O3  140   2.769   3.984   2.505 -0.3542  0.2181  0.2178
   15EC      C1  141   2.133   4.021   3.914  0.2727 -0.3173 -0.2172
   15EC      C2  142   2.230   3.901   3.977 -0.3076 -1.0905  0.0796
   15EC      O1  143   2.025   3.944   3.846  0.1615 -0.8026  0.4774
   15EC      H1  144   2.169   4.086   3.835 -4.8241  1.5654 -1.3430
   15EC      H2  145   2.108   4.080   4.002  6.1105  1.3334  0.7600
   15EC      O2  146   2.148   3.783   3.951 -0.0317  0.8741 -0.3704
   15EC      H3  147   2.262   3.927   4.078  2.6467 -0.8809 -0.8202
   15EC      H4  148   2.313   3.896   3.906 -2.6676 -0.2048 -2.9424
   15EC      C3  149   2.023   3.798   3.877 -0.6321 -0.1834  0.4680
   15EC      O3  150   1.967   3.714   3.808 -0.1150 -0.0601  0.1707
   16EC      C1  151   2.326   2.837   4.364  0.5115 -0.4561  0.4384
   16EC      C2  152   2.288   2.686   4.397 -0.3699  0.4544  0.1285
   16EC      O1  153   2.461   2.857   4.435  0.5183  0.4313 -0.3528
   16EC      H1  154   2.254   2.905   4.408  0.2486 -1.5956  1.8153
   16EC      H2  155   2.326   2.867   4.259 -1.1993 -1.5461  0.0871
   16EC      O2  156   2.404   2.640   4.481 -0.3121 -0.4680  0.5503
   16EC      H3  157   2.266   2.635   4.303 -1.0845  1.2814 -0.1567
   16EC      H4  158   2.194   2.673   4.450 -0.1061 -1.5376  0.2145
   16EC      C3  159   2.507   2.744   0.010  0.7369 -0.3889  0.2961
   16EC      O3  160   2.621   2.727   0.048  0.2380 -0.5719  0.0447
   17EC      C1  161   2.788   2.889   1.228 -0.9516 -0.1461  0.2014
   17EC      C2  162   2.885   3.010   1.183  0.3543  0.5033 -0.0873
   17EC      O1  163   2.834   2.852   1.374 -0.2353  0.3127  0.4999
   17EC      H1  164   2.824   2.798   1.180  0.1293  0.5245 -0.2969
   17EC      H2  165   2.680   2.889   1.214 -1.0844  0.5353  1.1453
   17EC      O2  166   2.959   3.039   1.309  0.4428 -0.1964  0.2423
   17EC      H3  167   2.818   3.090   1.154 -1.0830 -0.6197 -0.0228
   17EC      H4  168   2.958   2.972   1.112 -1.4416 -2.1017 -0.7088
   17EC      C3  169   2.932   2.948   1.428 -0.6504 -0.1745 -0.5165
   17EC      O3  170   2.990   2.945   1.536  0.4487 -0.0497  0.2194
   18EC      C1  171   0.103   3.164   2.031 -0.1512  0.4545 -0.3882
   18EC      C2  172   0.248   3.128   1.967  0.3567  0.6645 -0.4772
   18EC      O1  173   0.136   3.168   2.181 -0.5888 -0.0069  0.0970
   18EC      H1  174   0.026   3.091   2.006  1.7177 -2.0976  0.8963
   18EC      H2  175   0.066   3.262   2.000 -0.4331 -0.1595 -2.1223
   18EC      O2  176   0.335   3.106   2.088 -0.1094 -0.7543  0.1979
   18EC      H3  177   0.289   3.212   1.911 -0.3482  1.1033 -0.3394
   18EC      H4  178   0.247   3.035   1.910 -1.0742  0.1676  0.3204
   18EC      C3  179   0.273   3.137   2.219 -0.2597  0.5670  0.1493
   18EC      O3  180   0.308   3.104   2.332 -0.0067 -0.4378  0.6100
   19EC      C1  181   2.979   1.059   1.272 -0.4212  0.4876  0.3535
   19EC      C2  182   3.105   1.052   1.372  0.0772  0.0635 -0.1601
   19EC      O1  183   3.013   0.966   1.155 -0.2736  0.0396  0.3320
   19EC      H1  184   2.979   1.162   1.237 -0.0412  0.4217  0.1517
   19EC      H2  185   2.888   1.036   1.328 -0.1465  1.1584  1.0841
   19EC      O2  186   3.198   0.958   1.295  0.2609  0.4272 -0.1902
   19EC      H3  187   3.078   1.008   1.468 -3.0948  0.7534 -0.6201
   19EC      H4  188   3.151   1.149   1.391  0.1416  0.1817 -0.9102
   19EC      C3  189   3.143   0.900   1.165 -0.5653  0.2813  0.9641
   19EC      O3  190   3.191   0.819   1.084  0.0032 -0.2786  0.1367
   20EC      C1  191   1.390   3.943   0.521 -0.8877  0.5855  0.0372
   20EC      C2  192   1.507   3.934   0.413  0.6770  0.2401 -0.7386
   20EC      O1  193   1.327   3.802   0.517 -0.5951 -0.0779  0.1547
   20EC      H1  194   1.311   4.017   0.507 -1.3199 -0.3858 -3.4821
   20EC      H2  195   1.435   3.956   0.619  0.4093  1.8148 -0.6853
   20EC      O2  196   1.501   3.788   0.372 -1.1329 -0.1486  0.3603
   20EC      H3  197   1.604   3.940   0.461  0.6947  0.4680 -0.8054
   20EC      H4  198   1.502   3.993   0.322 -2.2130 -1.5026 -1.8710
   20EC      C3  199   1.405   3.699   0.446 -0.5448 -0.7080 -0.6388
   20EC      O3  200   1.364   3.588   0.419 -0.2142  0.9728 -0.4510
   21EC      C1  201   1.487   3.402   4.063 -0.0775 -1.0027  0.0170
   21EC      C2  202   1.398   3.273   4.079  0.1837 -0.1358  0.2161
   21EC      O1  203   1.628   3.345   4.036 -0.0471  0.2158 -0.6222
   21EC      H1  204   1.472   3.473   4.144 -2.0896 -0.3426 -0.8661
   21EC      H2  205   1.454   3.462   3.978 -0.9192 -2.0124 -0.3876
   21EC      O2  206   1.497   3.158   4.064 -0.0277  0.5106 -0.5371
   21EC      H3  207   1.322   3.273   4.001 -0.8084  0.2649  1.1445
   21EC      H4  208   1.345   3.285   4.174 -0.4574  0.3827 -0.2016
   21EC      C3  209   1.638   3.198   4.029  0.3228  0.7207 -0.4210
   21EC      O3  210   1.741   3.126   4.039  0.1186 -0.9883  0.3420
   22EC      C1  211   2.011   1.031   2.698 -0.6500  0.1725 -0.3984
   22EC      C2  212   1.910   0.951   2.794 -0.0794  0.4810 -0.3327
   22EC      O1  213   2.033   1.159   2.776 -0.2930 -0.2856 -0.0565
   22EC      H1  214   1.970   1.066   2.603 -1.6849 -0.6787 -0.2814
   22EC      H2  215   2.106   0.979   2.696 -0.4283  0.3872  1.9811
   22EC      O2  216   1.900   1.039   2.915  0.0231 -0.0711 -0.0721
   22EC      H3  217   1.941   0.851   2.825  0.8097  0.8652  0.0444
   22EC      H4  218   1.807   0.941   2.760  0.2337 -0.1912 -1.1123
   22EC      C3  219   1.967   1.166   2.916  0.3286 -0.4473  0.4045
   22EC      O3  220   1.930   1.269   2.964 -0.1646 -0.7188 -0.1648
   23EC      C1  221   2.860   2.329   1.370 -0.2181  0.4157 -1.5389
   23EC      C2  222   2.714   2.300   1.312  0.2096 -0.4195 -0.0905
   23EC      O1  223   2.839   2.318   1.520  0.5216  0.0655 -0.6631
   23EC      H1  224   2.893   2.429   1.343  1.7835 -0.5672 -2.9650
   23EC      H2  225   2.936   2.255   1.347  0.8915 -0.0668  2.7898
   23EC      O2  226   2.629   2.264   1.431  0.4567  0.6637  0.0545
   23EC      H3  227   2.697   2.233   1.227 -2.0829  2.4617 -2.1457
   23EC      H4  228   2.673   2.391   1.268  1.8247 -0.5002 -1.9162
   23EC      C3  229   2.702   2.285   1.562  0.8964  0.1720 -0.0506
   23EC      O3  230   2.667   2.232   1.668  0.0975 -0.3666 -0.0767
   24EC      C1  231   1.735   3.272   1.672 -0.2855 -0.0807  0.6397
   24EC      C2  232   1.624   3.164   1.719 -0.1985 -0.1178  0.3150
   24EC      O1  233   1.780   3.228   1.539  0.6769  0.5414  0.0342
   24EC      H1  234   1.820   3.277   1.741  0.7841  1.2161 -0.7238
   24EC      H2  235   1.699   3.374   1.660 -0.5816 -0.0963  1.3390
   24EC      O2  236   1.624   3.070   1.603  0.2925  0.0573 -0.1002
   24EC      H3  237   1.527   3.211   1.733 -0.3644 -0.7830  1.5583
   24EC      H4  238   1.659   3.109   1.806  0.1331 -0.1733  0.1504
   24EC      C3  239   1.701   3.111   1.481  0.6050  0.6893 -0.3363
   24EC      O3  240   1.738   3.032   1.390  0.3666  0.0985 -0.3610
   25EC      C1  241   0.994   3.742   2.302  0.7901  0.7058 -0.3694
   25EC      C2  242   1.136   3.707   2.358 -0.5418  0.1078  0.2124
   25EC      O1  243   0.905   3.769   2.421 -0.4992  0.0571  0.1032
   25EC      H1  244   0.942   3.668   2.241 -0.3076 -0.0971  1.4645
   25EC      H2  245   0.995   3.836   2.246  0.5509  0.1776 -1.2818
   25EC      O2  246   1.112   3.706   2.506  0.6216  0.0168  0.5416
   25EC      H3  247   1.222   3.767   2.329  0.8149 -2.0642 -0.5175
   25EC      H4  248   1.165   3.607   2.326  1.1977  0.9236 -0.9196
   25EC      C3  249   0.968   3.742   2.556  0.1025 -1.0539 -0.1535
   25EC      O3  250   0.950   3.811   2.656  0.3436  0.5276 -0.0151
   26EC      C1  251   4.120   1.180   0.234 -0.0840 -0.2653  1.3002
   26EC      C2  252   4.225   1.298   0.269  0.0612  0.1416 -1.1410
   26EC      O1  253   3.989   1.220   0.308 -0.8787 -0.6080 -0.4325
   26EC      H1  254   4.159   1.085   0.269 -1.7743 -1.5929 -0.2601
   26EC      H2  255   4.101   1.165   0.127  1.3711  3.2126  0.4077
   26EC      O2  256   4.136   1.388   0.356  0.1348  0.2412 -0.0055
   26EC      H3  257   4.275   1.356   0.192 -0.3147  0.3084 -1.2596
   26EC      H4  258   4.304   1.257   0.332 -1.4594 -0.6922  0.3081
   26EC      C3  259   4.001   1.337   0.392 -0.6918 -0.5776 -0.1633
   26EC      O3  260   3.910   1.402   0.439 -0.2274 -0.0415  0.4603
   27EC      C1  261   1.318   1.723   3.055  0.0213  0.1807 -0.0249
   27EC      C2  262   1.175   1.795   3.056 -0.1575  0.9773 -0.3356
   27EC      O1  263   1.401   1.834   2.992 -0.1744 -0.3262 -0.1867
   27EC      H1  264   1.281   1.645   2.989  0.1316  0.6552 -0.6546
   27EC      H2  265   1.354   1.678   3.147  0.4908  1.0124  0.2139
   27EC      O2  266   1.207   1.938   3.018 -0.2127 -0.7965 -0.7718
   27EC      H3  267   1.120   1.780   3.149 -0.5004  0.9846 -0.5402
   27EC      H4  268   1.118   1.754   2.973  0.2583  0.7200 -0.4957
   27EC      C3  269   1.342   1.968   2.975  0.5135 -0.3360 -0.8722
   27EC      O3  270   1.386   2.071   2.921  0.5820 -0.0865  0.0556
   28EC      C1  271   0.246   3.432   3.817  0.4592 -0.2403  0.2928
   28EC      C2  272   0.230   3.355   3.956  0.7503  0.0446 -1.1960
   28EC      O1  273   0.117   3.506   3.808 -0.1390  0.1440  0.5716
   28EC      H1  274   0.252   3.367   3.731 -2.7704 -0.0366 -0.2261
   28EC      H2  275   0.314   3.517   3.827 -0.5131  0.3146  3.2232
   28EC      O2  276   0.081   3.378   3.995 -0.4367  0.1210  0.0971
   28EC      H3  277   0.299   3.375   4.038  0.6410 -0.6970 -0.9174
   28EC      H4  278   0.252   3.253   3.921  1.7413  0.6419 -2.4054
   28EC      C3  279   0.012   3.484   3.916 -0.2104  0.4094 -0.6747
   28EC      O3  280   4.403   3.514   3.914 -0.1046  0.7050 -0.3330
   29EC      C1  281   4.379   2.155   3.749  0.0829 -0.1906  0.6923
   29EC      C2  282   4.319   2.085   3.615  0.7133  0.1285 -0.2739
   29EC      O1  283   4.366   2.301   3.716  0.5987  0.0784  0.0596
   29EC      H1  284   4.479   2.116   3.766  1.4483  1.7735 -2.0770
   29EC      H2  285   4.314   2.134   3.834 -0.0445 -2.4678  0.0881
   29EC      O2  286   4.292   2.200   3.524 -0.5403  0.2147 -0.0195
   29EC      H3  287   4.227   2.029   3.631  1.2558 -1.3882 -2.1269
   29EC      H4  288   4.389   2.016   3.568  0.8085 -0.7459  1.1008
   29EC      C3  289   4.289   2.329   3.588  0.2224 -0.1682 -0.1734
   29EC      O3  290   4.295   2.438   3.531  0.2043 -0.8181  0.0947
   30EC      C1  291   2.753   2.169   2.710  0.2374  0.9353 -0.1254
   30EC      C2  292   2.821   2.298   2.771 -0.6281 -0.6271  0.1118
   30EC      O1  293   2.841   2.126   2.591  0.3739 -0.0492  0.2821
   30EC      H1  294   2.647   2.185   2.688  0.5675 -0.0845 -2.9053
   30EC      H2  295   2.747   2.092   2.787  2.3602 -0.1414 -0.9652
   30EC      O2  296   2.946   2.311   2.685 -0.1309 -0.2634  0.5042
   30EC      H3  297   2.849   2.303   2.876  1.3648  5.6324 -0.2555
   30EC      H4  298   2.746   2.376   2.755 -1.1991 -1.5843 -2.2962
   30EC      C3  299   2.966   2.208   2.582  0.2571  0.4311 -0.4825
   30EC      O3  300   3.066   2.171   2.529 -0.3104 -0.7687 -0.9180
   31EC      C1  301   1.683   3.825   2.746 -0.7336 -0.3556  0.2839
   31EC      C2  302   1.753   3.705   2.667  0.4580 -0.3043  0.3251
   31EC      O1  303   1.737   3.806   2.892 -0.4616 -1.5302 -0.2498
   31EC      H1  304   1.575   3.827   2.738 -0.7469  0.1228  0.6030
   31EC      H2  305   1.722   3.924   2.722  0.3293 -0.8635 -0.1408
   31EC      O2  306   1.862   3.658   2.765  0.4898  0.1050  0.0635
   31EC      H3  307   1.800   3.756   2.583  0.1957  0.7549  0.7934
   31EC      H4  308   1.688   3.624   2.634 -0.7303  0.7272  0.0477
   31EC      C3  309   1.850   3.712   2.907  0.1515 -0.2053 -0.1719
   31EC      O3  310   1.910   3.681   3.012  0.7228 -0.1680  0.0692
   32EC      C1  311   3.137   0.057   2.586  0.4822 -0.2012  0.5910
   32EC      C2  312   3.087   4.504   2.717 -0.0732  0.5447 -0.3800
   32EC      O1  313   3.016   0.059   2.500  0.1822  0.6703  0.3270
   32EC      H1  314   3.211   4.505   2.536  2.5097  1.8904  0.8064
   32EC      H2  315   3.181   0.157   2.594 -0.6054  0.4755 -1.3465
   32EC      O2  316   2.939   4.484   2.700 -0.6077  0.2892  0.9739
   32EC      H3  317   3.120   0.060   2.797  1.2631 -1.8737  1.2038
   32EC      H4  318   3.140   4.410   2.732 -1.4169 -0.2335 -0.3617
   32EC      C3  319   2.888   0.002   2.565 -0.6647  0.7683  0.1033
   32EC      O3  320   2.774   0.010   2.528  0.2103 -0.2867 -0.2100
   33EC      C1  321   2.827   4.498   1.612  0.0693 -0.7331 -0.0722
   33EC      C2  322   2.741   4.420   1.507 -0.6664  0.0705 -0.0988
   33EC      O1  323   2.842   0.121   1.556 -0.0476  0.2139  0.4346
   33EC      H1  324   2.925   4.452   1.621  0.2322 -0.2272  0.7848
   33EC      H2  325   2.781   0.005   1.709 -0.1893  2.7102 -0.6852
   33EC      O2  326   2.699   0.018   1.415  0.6464  0.3200  0.7267
   33EC      H3  327   2.654   4.378   1.557  0.2785  1.0853  2.5885
   33EC      H4  328   2.799   4.348   1.449 -2.1712 -3.0420  1.9710
   33EC      C3  329   2.748   0.152   1.433 -0.3750  0.0773 -0.4130
   33EC      O3  330   2.739   0.247   1.353 -0.9910  0.2582 -0.6305
   34EC      C1  331   0.868   2.764   0.818 -0.0807 -0.1559  1.0005
   34EC      C2  332   0.869   2.771   0.657 -0.3874  0.0154 -0.0122
   34EC      O1  333   0.853   2.913   0.860  0.9162 -0.1223  0.4723
   34EC      H1  334   0.966   2.722   0.843  0.0424 -0.9848 -0.7725
   34EC      H2  335   0.782   2.700   0.837 -1.4071 -0.1688 -3.9029
   34EC      O2  336   0.881   2.921   0.624  0.8054  0.4341 -0.3547
   34EC      H3  337   0.768   2.742   0.628 -0.3122  0.9209 -1.2779
   34EC      H4  338   0.940   2.710   0.601  0.8004  1.1968  0.1769
   34EC      C3  339   0.860   3.011   0.742  0.1137  0.5049 -0.5236
   34EC      O3  340   0.889   3.128   0.736 -0.3434  0.3249 -0.0369
   35EC      C1  341   3.200   0.118   1.523  1.1109  0.5251 -0.4716
   35EC      C2  342   3.230   0.213   1.649  0.5204 -0.2770  0.5539
   35EC      O1  343   3.341   0.087   1.480 -0.7544  0.0739 -0.5700
   35EC      H1  344   3.149   0.178   1.448 -0.8047 -2.0515 -1.3546
   35EC      H2  345   3.132   0.038   1.553 -1.1469  2.5811  0.2442
   35EC      O2  346   3.378   0.237   1.651  0.6340  0.6025  0.0702
   35EC      H3  347   3.199   0.162   1.741  0.9406  0.5340  1.1496
   35EC      H4  348   3.176   0.308   1.649  1.9605  0.5845  1.9727
   35EC      C3  349   3.456   0.160   1.545  0.5449 -0.3473 -0.2044
   35EC      O3  350   3.576   0.153   1.527  0.1002 -0.9378  0.1580
   36EC      C1  351   1.486   2.016   1.616  0.4037  0.8496 -0.0623
   36EC      C2  352   1.410   2.053   1.754  0.6878  0.3528 -0.1391
   36EC      O1  353   1.432   2.130   1.517  0.0802 -0.2565 -0.3835
   36EC      H1  354   1.461   1.916   1.582  2.2212  0.9308 -1.8273
   36EC      H2  355   1.594   2.028   1.625  0.4423  0.3296  0.1398
   36EC      O2  356   1.316   2.166   1.713  0.6210 -0.8349  0.2856
   36EC      H3  357   1.475   2.110   1.820 -1.0543 -0.9907  2.9757
   36EC      H4  358   1.354   1.977   1.810 -0.0963 -0.6684 -2.2131
   36EC      C3  359   1.342   2.222   1.583  0.5705 -0.7889  0.1130
   36EC      O3  360   1.274   2.308   1.522 -0.1471  0.4283 -0.6063
   37EC      C1  361   2.332   1.243   3.791 -0.0629  0.2375 -0.2011
   37EC      C2  362   2.329   1.092   3.731 -0.3365 -1.0777 -0.1817
   37EC      O1  363   2.290   1.224   3.934  0.2146 -0.2103 -0.1960
   37EC      H1  364   2.286   1.326   3.738  1.9644  1.3711 -0.2901
   37EC      H2  365   2.440   1.259   3.794 -0.0700  0.2451  0.0162
   37EC      O2  366   2.270   1.012   3.847 -0.1361  0.1695 -0.0022
   37EC      H3  367   2.429   1.054   3.710 -0.0660  0.0923 -1.1644
   37EC      H4  368   2.270   1.093   3.639 -1.8630  1.1861  0.7454
   37EC      C3  369   2.254   1.089   3.976  0.4838  0.2788  0.5142
   37EC      O3  370   2.179   1.062   4.073  0.1428  0.0792 -0.0546
   38EC      C1  371   3.960   4.177   0.179  0.3440  1.3384 -0.4007
   38EC      C2  372   4.050   4.109   0.290  0.6170  0.0860 -0.1615
   38EC      O1  373   4.036   4.306   0.148 -0.0484 -0.7875 -0.1708
   38EC      H1  374   3.863   4.206   0.221  0.5446  2.1331 -0.4681
   38EC      H2  375   3.937   4.114   0.094 -0.0272 -0.0560  0.6905
   38EC      O2  376   4.148   4.220   0.327 -0.2972 -0.1719 -0.0970
   38EC      H3  377   4.111   4.032   0.242  1.1583  0.8171 -0.6673
   38EC      H4  378   3.993   4.059   0.367  2.8696 -2.8750 -0.2370
   38EC      C3  379   4.156   4.334   0.234  0.0156 -0.4787 -0.2588
   38EC      O3  380   4.207   4.444   0.258 -0.0870 -0.6294 -0.0623
   39EC      C1  381   1.446   1.312   2.145  0.3438 -0.4771 -0.5919
   39EC      C2  382   1.582   1.301   2.231 -0.9065 -0.3889  0.1460
   39EC      O1  383   1.338   1.311   2.261 -0.1406  0.2049 -0.5011
   39EC      H1  384   1.447   1.231   2.071 -1.5013 -1.4486  0.3624
   39EC      H2  385   1.441   1.411   2.099 -1.4674 -0.7457 -1.0741
   39EC      O2  386   1.543   1.329   2.374  0.2026  0.0257  0.7037
   39EC      H3  387   1.648   1.377   2.190 -2.6399  1.6389  0.9409
   39EC      H4  388   1.634   1.206   2.218 -1.4083 -0.5112 -1.2148
   39EC      C3  389   1.397   1.328   2.399 -0.4107 -0.0948 -0.1066
   39EC      O3  390   1.338   1.328   2.507 -0.0306  0.5174  0.1054
   40EC      C1  391   2.695   1.898   1.805  0.2656 -0.2484 -0.1020
   40EC      C2  392   2.566   1.807   1.798  0.7396 -0.2796 -1.0010
   40EC      O1  393   2.807   1.808   1.760  0.1312 -0.6032  0.1644
   40EC      H1  394   2.716   1.947   1.901  2.2362 -0.7270 -0.2431
   40EC      H2  395   2.700   1.983   1.737  4.2732 -0.0169  0.2336
   40EC      O2  396   2.616   1.681   1.728 -0.4232 -0.1349 -0.3972
   40EC      H3  397   2.486   1.852   1.739 -0.0865  2.3990  1.9225
   40EC      H4  398   2.520   1.787   1.894  2.6482  2.3474  0.6271
   40EC      C3  399   2.764   1.675   1.713 -0.0672  0.7366  0.1052
   40EC      O3  400   2.832   1.570   1.702  0.0148  0.5916 -0.0145
   41EC      C1  401   3.613   2.328   1.926 -0.2780 -0.3106  0.5202
   41EC      C2  402   3.636   2.171   1.923 -0.1803 -0.9106 -0.3870
   41EC      O1  403   3.506   2.342   2.033  0.4937  0.3093  0.1116
   41EC      H1  404   3.596   2.371   1.827  2.4753  0.8668  0.4719
   41EC      H2  405   3.709   2.374   1.949 -0.5044  0.8900 -0.7359
   41EC      O2  406   3.573   2.123   2.050  0.0374 -0.3181 -0.1250
   41EC      H3  407   3.738   2.133   1.916  0.9816  1.5966  1.4695
   41EC      H4  408   3.578   2.121   1.845  0.2708 -1.1644 -0.5693
   41EC      C3  409   3.469   2.214   2.106 -0.2096  0.7744 -0.1096
   41EC      O3  410   3.434   2.226   2.224  0.3409  0.4854 -0.0006
   42EC      C1  411   0.936   4.365   3.996  0.1850 -0.2032 -0.2512
   42EC      C2  412   0.841   4.231   3.971  0.3109  0.2264 -0.9190
   42EC      O1  413   1.041   4.317   4.089  0.4203 -0.0875 -0.1081
   42EC      H1  414   0.868   4.446   4.024  1.2471  0.4644  0.4405
   42EC      H2  415   0.981   4.389   3.900  3.3390 -0.6635  1.0183
   42EC      O2  416   0.907   4.126   4.057  0.1074  0.6194 -0.5927
   42EC      H3  417   0.837   4.206   3.864 -1.9494  0.7425 -0.9908
   42EC      H4  418   0.743   4.238   4.016  0.1823 -2.0731 -0.7195
   42EC      C3  419   1.030   4.176   4.135 -0.5610  1.3593 -0.8132
   42EC      O3  420   1.109   4.104   4.194 -0.5097  0.1776 -0.1791
   43EC      C1  421   4.218   1.149   4.328 -0.3130 -0.3781  0.3670
   43EC      C2  422   4.371   1.125   4.274 -0.8889 -0.4210 -0.3647
   43EC      O1  423   4.207   1.043   4.436  0.0196 -0.2193 -0.3772
   43EC      H1  424   4.138   1.143   4.254  1.0211  0.5061 -1.2014
   43EC      H2  425   4.217   1.249   4.370  2.7461 -0.1599  0.1617
   43EC      O2  426   4.423   1.002   4.351 -0.3734 -0.9510 -0.0323
   43EC      H3  427   4.425   1.214   4.305  2.0801 -2.6476  1.4758
   43EC      H4  428   4.375   1.102   4.168  2.8629  0.7651 -0.6502
   43EC      C3  429   4.315   0.949   4.459 -0.1870 -0.2426  0.5076
   43EC      O3  430   4.322   0.844   0.009 -0.1314 -0.6424 -0.5595
   44EC      C1  431   2.329   3.159   2.609  0.0650 -0.0408  0.4923
   44EC      C2  432   2.364   3.252   2.735 -0.3214 -0.2894  0.3709
   44EC      O1  433   2.172   3.144   2.628 -0.2746  0.2362  0.1499
   44EC      H1  434   2.365   3.057   2.620 -0.4992 -0.2383  0.5510
   44EC      H2  435   2.355   3.200   2.512 -0.5143  0.3881  0.5094
   44EC      O2  436   2.237   3.268   2.807 -0.1618 -0.8318  0.0264
   44EC      H3  437   2.424   3.340   2.714  0.4016 -0.2687  2.2720
   44EC      H4  438   2.423   3.178   2.791 -1.5277 -2.8720 -1.5526
   44EC      C3  439   2.114   3.219   2.747  0.9704  1.3842 -0.1870
   44EC      O3  440   2.001   3.206   2.798 -0.2759  0.0302 -0.1317
   45EC      C1  441   0.005   4.446   0.779 -0.6102 -0.5971 -0.1550
   45EC      C2  442   0.093   0.030   0.873  0.2781  0.3210  0.4901
   45EC      O1  443   4.394   0.020   0.744 -0.5984  0.4402 -0.1369
   45EC      H1  444   4.478   4.357   0.831  1.0732 -1.8524 -1.0215
   45EC      H2  445   0.045   4.396   0.691 -2.9658 -1.6752 -0.6897
   45EC      O2  446   4.501   0.134   0.916 -0.1624 -0.0417  0.5483
   45EC      H3  447   0.177   0.077   0.821  0.6838 -0.7429  0.1525
   45EC      H4  448   0.122   4.494   0.968  0.6858 -2.5735 -0.9252
   45EC      C3  449   4.385   0.149   0.825  0.6083 -0.9821 -0.1728
   45EC      O3  450   4.279   0.210   0.855  0.3160 -0.1791  0.1497
   46EC      C1  451   2.639   1.506   2.727 -0.1738  0.0387 -0.5690
   46EC      C2  452   2.680   1.492   2.884  0.2291  0.3947  0.0384
   46EC      O1  453   2.699   1.641   2.688  0.7360  0.0436  0.0350
   46EC      H1  454   2.531   1.508   2.711  0.0030 -2.0117 -2.6504
   46EC      H2  455   2.673   1.423   2.665  0.3170 -1.1109  1.1900
   46EC      O2  456   2.729   1.628   2.920 -0.4612 -0.4549 -0.3205
   46EC      H3  457   2.755   1.412   2.888 -2.2292 -2.0634  0.2831
   46EC      H4  458   2.590   1.467   2.940  0.9573  0.9599  1.5062
   46EC      C3  459   2.722   1.729   2.809 -0.0873 -0.4928 -0.5377
   46EC      O3  460   2.783   1.836   2.809 -0.6000 -0.1388 -0.1743
   47EC      C1  461   0.558   3.469   1.713 -0.2593 -0.7577 -0.3139
   47EC      C2  462   0.562   3.406   1.856 -0.1492 -0.2634 -0.5737
   47EC      O1  463   0.544   3.350   1.619 -0.2477  0.1108 -0.1466
   47EC      H1  464   0.655   3.518   1.710 -0.5147 -0.2174  0.0973
   47EC      H2  465   0.483   3.548   1.714 -0.2007 -0.6873 -1.0554
   47EC      O2  466   0.561   3.256   1.830  0.7681  0.2730  0.2152
   47EC      H3  467   0.483   3.436   1.925  0.9368 -0.0640  0.5939
   47EC      H4  468   0.657   3.439   1.897 -0.3857  0.7790 -0.8148
   47EC      C3  469   0.547   3.222   1.686 -0.1501  1.0181  0.3152
   47EC      O3  470   0.533   3.109   1.635 -0.5158 -0.3210 -0.5136
   48EC      C1  471   2.361   0.763   0.878 -0.1666 -0.4136 -0.3907
   48EC      C2  472   2.298   0.865   0.984  0.1481  0.0635 -0.0981
   48EC      O1  473   2.326   0.834   0.748  0.0984 -0.2424 -0.3828
   48EC      H1  474   2.310   0.666   0.880  0.4191 -0.7390 -0.9812
   48EC      H2  475   2.465   0.733   0.872  0.1292  0.7437 -1.4784
   48EC      O2  476   2.206   0.951   0.908 -0.5793 -0.2406  0.0041
   48EC      H3  477   2.378   0.935   1.009  1.0199  0.2206 -2.9757
   48EC      H4  478   2.256   0.823   1.076 -2.7706  0.8811 -0.9481
   48EC      C3  479   2.230   0.946   0.756  0.3456  0.4883  0.2383
   48EC      O3  480   2.192   1.019   0.665 -0.1448  0.6400  0.2132
   49EC      C1  481   2.947   2.577   0.652 -0.4319  0.2715 -0.6180
   49EC      C2  482   3.037   2.660   0.544 -0.1113  0.5710  0.0826
   49EC      O1  483   2.985   2.638   0.783 -0.4956  0.7563 -0.1937
   49EC      H1  484   2.961   2.469   0.650  1.4042  0.4052  1.1598
   49EC      H2  485   2.844   2.601   0.627 -0.8030 -0.2660  0.3558
   49EC      O2  486   3.102   2.766   0.628  0.3626 -0.4014  0.4844
   49EC      H3  487   2.975   2.705   0.467  0.7260 -0.5442 -1.2923
   49EC      H4  488   3.117   2.601   0.499  1.1608  2.7159 -0.6206
   49EC      C3  489   3.085   2.748   0.779  0.1323  0.1799  0.1324
   49EC      O3  490   3.108   2.831   0.872 -0.3261  0.6763  0.9605
   50EC      C1  491   3.510   1.957   3.236 -0.4559  0.1797 -0.1792
   50EC      C2  492   3.457   1.961   3.087 -0.2759  0.2414 -0.3546
   50EC      O1  493   3.401   1.894   3.316 -0.1848  0.2760  0.2328
   50EC      H1  494   3.515   2.059   3.274 -0.7609 -0.3351  1.3042
   50EC      H2  495   3.607   1.906   3.244 -1.4992 -1.6932  1.2830
   50EC      O2  496   3.311   1.931   3.104  0.2431  0.2169  0.1749
   50EC      H3  497   3.507   1.883   3.030 -0.7598  0.1341 -0.6308
   50EC      H4  498   3.470   2.052   3.028  1.9243  0.5012  0.4299
   50EC      C3  499   3.270   1.891   3.240  0.5118  0.6721 -0.3353
   50EC      O3  500   3.161   1.847   3.279 -0.2646  0.4645 -0.0198
   51EC      C1  501   0.397   1.538   0.513  0.0939 -0.0126  0.1120
   51EC      C2  502   0.308   1.617   0.621 -0.8713 -0.4464 -0.3514
   51EC      O1  503   0.456   1.431   0.600 -0.1398 -0.2181  0.7727
   51EC      H1  504   0.469   1.609   0.471 -0.7019 -0.4208 -2.0386
   51EC      H2  505   0.343   1.506   0.425  1.3839  1.9541 -1.5101
   51EC      O2  506   0.350   1.555   0.754  0.1691 -0.3266  0.6552
   51EC      H3  507   0.205   1.600   0.590 -1.4560  1.0325  0.6613
   51EC      H4  508   0.332   1.724   0.621 -0.7265 -0.4675  0.7076
   51EC      C3  509   0.453   1.450   0.749  0.1971  0.1159  0.5353
   51EC      O3  510   0.457   1.355   0.829  0.2794  0.0197  0.3780
   52EC      C1  511   1.732   2.541   2.320  0.3553 -0.2977  0.2024
   52EC      C2  512   1.575   2.517   2.286 -0.0080 -0.1299  0.4932
   52EC      O1  513   1.794   2.527   2.184 -0.6354  0.0069  0.5641
   52EC      H1  514   1.764   2.466   2.392  0.9916 -0.6852 -0.4786
   52EC      H2  515   1.761   2.638   2.362  1.4349 -0.0808 -1.0037
   52EC      O2  516   1.570   2.524   2.132 -0.1220 -0.2785 -0.2254
   52EC      H3  517   1.515   2.604   2.313 -0.1861  0.2909 -1.1796
   52EC      H4  518   1.535   2.425   2.329  0.2421 -1.3134 -1.6920
   52EC      C3  519   1.706   2.523   2.069 -0.2705 -0.2486  0.0449
   52EC      O3  520   1.730   2.542   1.952  0.1209 -0.5607  0.2762
   53EC      C1  521   0.773   2.623   4.382  0.4249  0.1553 -0.1250
   53EC      C2  522   0.780   2.460   4.397 -0.1884  0.2165 -0.3910
   53EC      O1  523   0.667   2.652   4.484  0.1974 -0.0304  0.4197
   53EC      H1  524   0.742   2.659   4.284  3.2350  2.4665 -0.2836
   53EC      H2  525   0.861   2.683   4.401  0.6303 -0.2715  0.2919
   53EC      O2  526   0.675   2.429   4.503 -0.2142 -0.6314 -0.1952
   53EC      H3  527   0.879   2.430   4.431  0.8427  2.8786 -0.7920
   53EC      H4  528   0.755   2.411   4.303  0.5940 -2.0482  0.5220
   53EC      C3  529   0.611   2.543   0.061 -0.9075  0.2509  0.3730
   53EC      O3  530   0.496   2.537   0.106 -0.2176 -0.0361 -0.0650
   54EC      C1  531   3.964   3.327   0.971 -0.1052 -0.4099 -0.2531
   54EC      C2  532   3.807   3.313   0.955 -0.2575 -0.4300  0.4277
   54EC      O1  533   4.018   3.342   0.832  0.3015  0.6095  0.0603
   54EC      H1  534   4.013   3.246   1.023  2.2106  1.6194  0.9477
   54EC      H2  535   3.993   3.418   1.025 -2.2474  0.2536 -0.1282
   54EC      O2  536   3.786   3.339   0.809  0.2290  0.7176 -0.1124
   54EC      H3  537   3.751   3.379   1.021 -0.6973 -0.1778 -0.1918
   54EC      H4  538   3.766   3.213   0.966 -3.1762  0.5832 -0.3482
   54EC      C3  539   3.912   3.364   0.728 -0.7428 -0.5282 -0.3771
   54EC      O3  540   3.935   3.341   0.609 -0.3738  0.2937  0.5361
   55EC      C1  541   1.953   3.031   3.387  0.2909 -0.6562  0.2066
   55EC      C2  542   1.998   2.973   3.243 -0.3970  0.2063 -1.0089
   55EC      O1  543   2.081   3.054   3.467 -0.5345 -0.0904  0.2181
   55EC      H1  544   1.889   2.958   3.437 -0.3393 -1.2027 -1.3431
   55EC      H2  545   1.889   3.118   3.388  1.1900  0.0164  0.9491
   55EC      O2  546   2.153   2.981   3.258  0.6051 -0.1133 -0.2664
   55EC      H3  547   1.963   3.033   3.159  0.2505  2.1664  0.0691
   55EC      H4  548   1.959   2.871   3.233 -0.4175 -0.1267  1.8050
   55EC      C3  549   2.206   3.032   3.392  0.0008 -0.4223 -0.3387
   55EC      O3  550   2.310   3.091   3.417  0.5122 -0.6508 -0.1248
   56EC      C1  551   3.464   0.923   1.944 -0.1340  0.2517  1.1352
   56EC      C2  552   3.617   0.945   1.909 -0.1924  0.2143  0.0366
   56EC      O1  553   3.437   1.020   2.052 -0.6822 -0.1758 -0.5621
   56EC      H1  554   3.463   0.821   1.981  0.6339 -0.5030 -0.7907
   56EC      H2  555   3.394   0.932   1.861 -0.5261 -0.4483  1.3869
   56EC      O2  556   3.675   1.037   2.014  0.4378  1.3023 -0.5127
   56EC      H3  557   3.614   0.996   1.812  0.1145 -0.2505 -0.2173
   56EC      H4  558   3.670   0.851   1.896  0.9293  1.0461 -2.1534
   56EC      C3  559   3.573   1.084   2.108  0.1567 -0.1056 -0.8062
   56EC      O3  560   3.596   1.121   2.227 -0.2754  0.4275  0.0419
   57EC      C1  561   2.811   1.398   0.619 -0.5659 -0.2698  0.4890
   57EC      C2  562   2.959   1.400   0.567 -0.7558  0.3016 -0.1186
   57EC      O1  563   2.826   1.383   0.771  0.0495 -0.1474  0.0580
   57EC      H1  564   2.755   1.321   0.567 -1.2472  0.9009 -0.5627
   57EC      H2  565   2.764   1.497   0.614 -1.1676 -0.5900 -0.3088
   57EC      O2  566   3.038   1.371   0.687  0.4572  0.4531  0.0592
   57EC      H3  567   2.993   1.499   0.537  2.6848 -0.6757  0.1673
   57EC      H4  568   2.958   1.328   0.485 -1.6591  0.7768 -0.5409
   57EC      C3  569   2.961   1.327   0.812 -0.3056 -0.1238 -0.5175
   57EC      O3  570   3.006   1.310   0.926 -0.1655  0.3002 -0.1915
   58EC      C1  571   4.430   4.077   2.739 -0.5348 -0.4994  0.1018
   58EC      C2  572   4.310   4.115   2.633  0.3776  0.6564 -0.1196
   58EC      O1  573   4.353   4.045   2.864 -0.2633 -0.1679  0.4326
   58EC      H1  574   4.473   4.174   2.765 -2.3847  0.1031  1.1401
   58EC      H2  575   4.499   3.997   2.715  1.3904  0.9554  0.5612
   58EC      O2  576   4.183   4.102   2.720 -0.5813  0.3707  0.6515
   58EC      H3  577   4.301   4.038   2.556  0.8384  0.3782  0.1055
   58EC      H4  578   4.327   4.212   2.586  0.1509  1.4985  1.4531
   58EC      C3  579   4.207   4.057   2.864  0.3086 -0.4503  0.3510
   58EC      O3  580   4.129   3.983   2.929 -0.3894 -0.3693 -0.0171
   59EC      C1  581   2.826   2.258   1.939 -0.6732 -0.3173  0.0466
   59EC      C2  582   2.888   2.400   1.904  0.2804  0.1763 -0.3641
   59EC      O1  583   2.918   2.193   2.041 -0.0818 -0.6337 -0.6348
   59EC      H1  584   2.833   2.203   1.846  0.2251 -3.9625  2.0767
   59EC      H2  585   2.720   2.274   1.962 -0.6226  2.9021 -1.3604
   59EC      O2  586   3.018   2.401   1.977 -0.1037 -0.3743  0.0384
   59EC      H3  587   2.817   2.471   1.946  1.2009  0.1384  1.3310
   59EC      H4  588   2.894   2.420   1.797 -1.4303  0.6931 -0.3887
   59EC      C3  589   3.046   2.270   2.057  0.5119 -0.1870  0.4166
   59EC      O3  590   3.125   2.260   2.154  0.1352  0.3204 -0.0680
   60EC      C1  591   1.644   2.113   3.670 -0.3012 -0.4839 -0.0094
   60EC      C2  592   1.503   2.080   3.737  0.3514 -0.4974 -0.9785
   60EC      O1  593   1.732   2.138   3.791  0.5183 -0.0794  0.0231
   60EC      H1  594   1.636   2.206   3.614 -2.6620  0.5206  1.7920
   60EC      H2  595   1.683   2.034   3.607  0.8661 -0.6119  0.8393
   60EC      O2  596   1.532   2.078   3.886 -0.4136 -0.2358  0.2215
   60EC      H3  597   1.475   1.982   3.699  0.5543 -1.3048  0.8469
   60EC      H4  598   1.426   2.150   3.706 -1.1924 -0.8656  1.7213
   60EC      C3  599   1.672   2.104   3.922  0.8018 -0.1388  0.3487
   60EC      O3  600   1.716   2.138   4.028 -0.2577 -0.4916 -0.5246
   61EC      C1  601   1.903   3.293   2.351 -0.8366  0.0662  0.6003
   61EC      C2  602   1.835   3.384   2.464 -0.3909 -0.6896 -0.3410
   61EC      O1  603   1.901   3.389   2.227  0.4587  0.1586 -0.1751
   61EC      H1  604   1.831   3.214   2.327  1.1383 -1.0122 -2.3609
   61EC      H2  605   2.007   3.266   2.370 -0.4605  1.1546  0.1573
   61EC      O2  606   1.843   3.524   2.404  0.5241  0.4444 -0.0537
   61EC      H3  607   1.896   3.380   2.554 -0.7290 -0.9794 -0.1228
   61EC      H4  608   1.729   3.368   2.485 -0.6172 -0.1656 -1.0302
   61EC      C3  609   1.866   3.526   2.256 -0.3402 -0.8466  0.1390
   61EC      O3  610   1.889   3.621   2.180 -0.2757 -0.0426 -0.3279
   62EC      C1  611   0.790   1.627   1.726  0.5231  0.2496  0.3361
   62EC      C2  612   0.815   1.786   1.724  0.6409  0.1856  0.1892
   62EC      O1  613   0.679   1.602   1.625  0.5598  0.1568 -0.5384
   62EC      H1  614   0.765   1.583   1.822  0.3880  0.3480  0.3473
   62EC      H2  615   0.863   1.552   1.699 -1.3658 -1.7400  0.5171
   62EC      O2  616   0.724   1.830   1.604 -0.7287 -0.2151  0.5195
   62EC      H3  617   0.918   1.815   1.708  0.9815 -2.2043 -2.8437
   62EC      H4  618   0.782   1.831   1.818  0.4288  2.2408 -0.8238
   62EC      C3  619   0.635   1.718   1.550 -0.1222  0.2135 -0.0303
   62EC      O3  620   0.571   1.722   1.441 -0.6335  0.1841  0.6670
   63EC      C1  621   3.651   2.477   3.193 -0.0072  0.5301 -0.7249
   63EC      C2  622   3.710   2.361   3.284 -0.7283 -0.1769  0.1008
   63EC      O1  623   3.502   2.438   3.183  0.3840  0.2145 -0.3325
   63EC      H1  624   3.707   2.487   3.100  0.3999 -0.5286 -0.6116
   63EC      H2  625   3.663   2.569   3.249  0.4488  0.7380 -1.1530
   63EC      O2  626   3.591   2.283   3.328  1.0431  0.1427  0.4404
   63EC      H3  627   3.750   2.402   3.376  1.7894 -1.5628 -0.2550
   63EC      H4  628   3.789   2.303   3.235  0.3947  1.4885 -0.1305
   63EC      C3  629   3.456   2.323   3.281 -0.2183 -0.3597  0.7102
   63EC      O3  630   3.353   2.259   3.287 -0.4020 -0.2154 -0.6547
   64EC      C1  631   0.174   2.308   1.636 -0.3426  0.0930 -0.0283
   64EC      C2  632   0.113   2.455   1.656  0.7740  0.2144 -0.5954
   64EC      O1  633   0.172   2.283   1.491  0.2281  0.5347 -0.3004
   64EC      H1  634   0.116   2.251   1.709  0.5043  0.5507  1.0185
   64EC      H2  635   0.277   2.292   1.666 -0.0780 -0.3085 -1.0879
   64EC      O2  636   0.053   2.484   1.519 -0.4671 -0.3832 -0.5518
   64EC      H3  637   0.181   2.537   1.682  0.1529  0.2366  1.0679
   64EC      H4  638   0.029   2.441   1.724  0.4639 -0.0206 -1.0224
   64EC      C3  639   0.081   2.381   1.415 -0.2258 -0.1007  0.8222
   64EC      O3  640   0.077   2.393   1.294 -0.1404 -0.4361  0.2761
   65EC      C1  641   3.545   1.929   1.480 -0.4904 -0.5749  0.8787
   65EC      C2  642   3.466   1.803   1.414 -0.5904  0.4395  0.0804
   65EC      O1  643   3.515   1.917   1.627  0.1158  0.3638 -0.3710
   65EC      H1  644   3.514   2.027   1.445  1.9342  0.7369  2.1943
   65EC      H2  645   3.653   1.923   1.474 -0.5632 -0.5875 -2.0200
   65EC      O2  646   3.431   1.722   1.533 -0.5146  0.2103  0.2665
   65EC      H3  647   3.520   1.752   1.334  2.5133 -0.6596  2.6368
   65EC      H4  648   3.376   1.833   1.361 -0.5882  1.0717  0.4336
   65EC      C3  649   3.447   1.791   1.663  0.0515 -0.6518 -0.8265
   65EC      O3  650   3.432   1.750   1.778 -0.0830  0.2740 -0.1530
   66EC      C1  651   4.249   4.253   4.130  0.5938  0.4122 -0.6833
   66EC      C2  652   4.305   4.405   4.128 -0.0961 -0.8556  0.4586
   66EC      O1  653   4.380   4.178   4.149 -0.4404  0.2340  0.4718
   66EC      H1  654   4.194   4.220   4.042 -0.0365  2.0246 -0.9248
   66EC      H2  655   4.185   4.245   4.218 -1.4868  1.7976 -1.9845
   66EC      O2  656   4.448   4.393   4.177  0.5488  0.2670 -0.6668
   66EC      H3  657   4.234   4.476   4.170  0.4307  0.1809 -0.3457
   66EC      H4  658   4.311   4.432   4.022 -0.3381  0.3716  0.7353
   66EC      C3  659   4.501   4.253   4.174  0.2609  0.0715  0.3060
   66EC      O3  660   0.105   4.210   4.209  0.3171  0.3505  0.2811
   67EC      C1  661   4.415   1.951   1.266 -1.2157  0.3199 -1.3598
   67EC      C2  662   4.326   2.062   1.340  0.2765  0.2428 -0.8605
   67EC      O1  663   4.445   2.013   1.132 -0.3112  0.2208  0.1516
   67EC      H1  664   4.366   1.855   1.254  2.8671 -2.1814 -0.1363
   67EC      H2  665   0.002   1.926   1.310 -2.5267  0.1828  1.7407
   67EC      O2  666   4.318   2.175   1.245 -0.2758  0.1250  0.5425
   67EC      H3  667   4.374   2.104   1.429  0.5200 -0.6400 -0.5648
   67EC      H4  668   4.223   2.032   1.355  0.4549 -0.8985 -1.7876
   67EC      C3  669   4.399   2.155   1.117  0.1240 -0.2000 -0.1904
   67EC      O3  670   4.374   2.210   1.004  0.0250 -0.1491 -0.4686
   68EC      C1  671   4.177   3.744   4.050 -0.2342 -0.0254  0.3315
   68EC      C2  672   4.053   3.843   4.060 -0.3541 -0.1549  0.7869
   68EC      O1  673   4.260   3.781   4.178 -0.1806  0.8867 -0.1770
   68EC      H1  674   4.224   3.762   3.953  0.0383 -1.4334  0.1705
   68EC      H2  675   4.149   3.639   4.055  1.2724 -0.5484 -1.0824
   68EC      O2  676   4.079   3.921   4.182  0.5273 -0.3381  0.2482
   68EC      H3  677   3.954   3.801   4.071 -0.2804 -1.1712 -1.8452
   68EC      H4  678   4.051   3.901   3.968  0.6664  1.6718  1.8381
   68EC      C3  679   4.204   3.896   4.250 -0.2681 -0.4606 -0.2310
   68EC      O3  680   4.246   3.936   4.358 -0.7227  0.4511 -0.3225
   69EC      C1  681   3.527   3.884   1.252  0.1517  0.2850  0.4401
   69EC      C2  682   3.515   4.028   1.184  0.2733  0.2482 -0.3726
   69EC      O1  683   3.451   3.796   1.160  0.1104 -0.2642  0.0371
   69EC      H1  684   3.485   3.889   1.352  0.9563 -1.2181  0.8772
   69EC      H2  685   3.628   3.844   1.248  0.5413  1.0370  2.0884
   69EC      O2  686   3.456   3.997   1.050 -0.0169 -0.4999 -0.7997
   69EC      H3  687   3.612   4.078   1.176  0.9273 -0.9746 -0.3613
   69EC      H4  688   3.440   4.080   1.244 -0.8752 -2.2891  0.5466
   69EC      C3  689   3.412   3.864   1.029  0.7123 -0.2626  0.3431
   69EC      O3  690   3.332   3.827   0.943  0.0669 -0.0791  0.1506
   70EC      C1  691   0.036   1.690   0.889 -0.4831  0.1601  0.1545
   70EC      C2  692   4.390   1.688   0.914  0.1317 -0.1236  0.1430
   70EC      O1  693   0.061   1.826   0.827  0.2220 -0.0331  0.0320
   70EC      H1  694   0.064   1.614   0.816 -2.6142  0.7801 -1.4278
   70EC      H2  695   0.091   1.676   0.982  0.1968 -2.6634 -0.5787
   70EC      O2  696   4.342   1.811   0.844  0.1453 -0.3362 -0.3649
   70EC      H3  697   4.372   1.693   1.022  1.0521  1.4831  0.2530
   70EC      H4  698   4.333   1.603   0.879 -2.9741  1.7117  0.3560
   70EC      C3  699   4.452   1.906   0.791  1.1365 -0.0027  0.5805
   70EC      O3  700   4.444   2.025   0.755  0.2040 -0.2203 -0.5580
   71EC      C1  701   1.980   0.271   2.572  0.2294  0.7305  0.2320
   71EC      C2  702   2.021   0.245   2.422 -0.3005  0.3472  0.3540
   71EC      O1  703   2.105   0.233   2.653 -0.5153 -0.0316 -0.1425
   71EC      H1  704   1.900   0.200   2.593  1.2348 -0.5004  0.0067
   71EC      H2  705   1.958   0.376   2.590 -1.7849  0.5952 -1.1323
   71EC      O2  706   2.163   0.203   2.431  0.6409 -0.0017  0.3272
   71EC      H3  707   1.994   0.337   2.372 -2.3812 -1.0561 -1.2810
   71EC      H4  708   1.958   0.170   2.374 -1.6748  1.7001 -0.0265
   71EC      C3  709   2.226   0.198   2.564 -0.4239 -0.5214 -0.4115
   71EC      O3  710   2.347   0.186   2.588  0.6633 -0.1091  0.1280
   72EC      C1  711   2.036   2.945   1.423 -0.0979 -0.5691 -0.3824
   72EC      C2  712   2.095   3.090   1.480 -0.4581 -0.1950  0.6771
   72EC      O1  713   1.971   2.881   1.548 -0.5942  0.1816 -0.1335
   72EC      H1  714   2.123   2.884   1.399  1.3690  1.0574  0.5345
   72EC      H2  715   1.969   2.941   1.337  1.3078 -0.7672 -1.5082
   72EC      O2  716   2.050   3.087   1.623  0.3440  0.0197  0.3630
   72EC      H3  717   2.050   3.181   1.442 -0.7474 -1.0766 -1.1960
   72EC      H4  718   2.203   3.097   1.465 -0.7322  4.3236 -0.3886
   72EC      C3  719   2.011   2.951   1.671  0.8304 -0.0761 -0.9534
   72EC      O3  720   1.976   2.923   1.788 -0.5741  0.2587  0.5171
   73EC      C1  721   3.904   4.043   1.923 -0.7895 -0.0925 -0.6766
   73EC      C2  722   3.950   4.192   1.890 -0.8086  0.0351  0.2626
   73EC      O1  723   3.759   4.057   1.951 -0.1046  0.3589  0.0859
   73EC      H1  724   3.951   4.002   2.013  0.7497  0.0228 -1.3886
   73EC      H2  725   3.924   3.977   1.838 -0.5360 -1.4756  0.4072
   73EC      O2  726   3.827   4.273   1.900  0.2442 -0.4211 -0.1453
   73EC      H3  727   3.995   4.185   1.791 -2.8290  0.5607 -0.7438
   73EC      H4  728   4.010   4.223   1.976 -0.6320  1.6813 -0.4178
   73EC      C3  729   3.699   4.193   1.926 -0.2122 -0.5175 -0.3539
   73EC      O3  730   3.601   4.241   1.989  0.3627 -0.0406 -0.1701
   74EC      C1  731   0.869   1.339   1.090 -0.0586 -0.6346  0.5065
   74EC      C2  732   0.945   1.317   0.950  0.5788  0.1058 -0.1371
   74EC      O1  733   0.727   1.295   1.049  0.2257 -0.1178  0.2958
   74EC      H1  734   0.878   1.440   1.129  1.4736 -0.3748 -0.4236
   74EC      H2  735   0.900   1.269   1.168  0.6370 -0.4902  0.3713
   74EC      O2  736   0.848   1.238   0.856 -0.1967  0.3892  0.4864
   74EC      H3  737   1.033   1.253   0.957  0.2444 -0.2799  0.6490
   74EC      H4  738   0.973   1.406   0.895 -0.7242  0.2707 -0.5813
   74EC      C3  739   0.721   1.211   0.926  0.1410  0.5037 -0.3713
   74EC      O3  740   0.648   1.116   0.914 -0.5097  0.2367  0.1535
   75EC      C1  741   3.006   3.686   4.393 -0.2896  0.1352 -0.0857
   75EC      C2  742   2.991   3.707   4.230  0.0266  0.0285  0.2887
   75EC      O1  743   2.968   3.821   4.447 -0.1473  0.6065 -1.0128
   75EC      H1  744   3.112   3.674   4.414 -0.6169  1.7942  3.0897
   75EC      H2  745   2.929   3.613   4.416  0.4367 -1.8027 -3.2204
   75EC      O2  746   2.971   3.857   4.223  0.3952  0.0284  0.3364
   75EC      H3  747   2.920   3.637   4.187  0.0777  0.4897 -0.5658
   75EC      H4  748   3.090   3.689   4.186  0.3973 -0.4435  1.2736
   75EC      C3  749   2.966   3.937   4.352  0.2815  0.6242  0.6649
   75EC      O3  750   2.930   4.050   4.365 -0.1110  0.5391  0.0698
   76EC      C1  751   0.441   3.536   3.168 -0.6219  0.0131 -0.1397
   76EC      C2  752   0.467   3.565   3.010 -0.2162 -0.2529  0.0393
   76EC      O1  753   0.438   3.385   3.176  0.2540  0.0706 -0.2509
   76EC      H1  754   0.341   3.570   3.194 -1.3881 -1.3998 -1.1685
   76EC      H2  755   0.519   3.589   3.224  0.0205 -0.1277 -0.8915
   76EC      O2  756   0.502   3.429   2.963 -0.0737  0.2988 -1.2830
   76EC      H3  757   0.558   3.625   2.999 -0.6693  0.3262 -0.5813
   76EC      H4  758   0.381   3.611   2.962  1.2545  1.1152 -1.3871
   76EC      C3  759   0.464   3.313   3.051  0.5083 -0.0697 -0.3736
   76EC      O3  760   0.492   3.201   3.036  0.0634  0.2159  0.7015
   77EC      C1  761   0.008   4.437   1.964 -0.5406  0.2577 -0.5576
   77EC      C2  762   4.456   4.347   2.089 -0.4289 -0.9336  0.3015
   77EC      O1  763   4.398   0.001   1.908  0.1094 -0.0889  0.7826
   77EC      H1  764   0.055   4.368   1.895 -0.7759 -0.3001 -0.1659
   77EC      H2  765   0.087   4.505   1.997 -1.6124  1.0082  0.5553
   77EC      O2  766   4.318   4.402   2.090  0.9239 -0.2281  0.6022
   77EC      H3  767   4.495   4.358   2.191  1.3502 -0.9982 -0.3450
   77EC      H4  768   4.460   4.241   2.066  0.5805 -0.2878 -3.0831
   77EC      C3  769   4.271   4.502   1.982  0.8869 -0.4996 -0.7442
   77EC      O3  770   4.160   4.501   1.930 -0.3885  0.3633 -0.9171
   78EC      C1  771   2.981   4.281   3.501 -0.6397  0.3789 -0.1127
   78EC      C2  772   2.957   4.172   3.381  0.6523  0.1739 -0.1547
   78EC      O1  773   2.945   4.412   3.446  0.3707  0.1030 -0.4430
   78EC      H1  774   3.087   4.290   3.526 -0.7028  0.1562  0.2230
   78EC      H2  775   2.925   4.238   3.583  1.3602 -2.1032  0.0762
   78EC      O2  776   2.870   4.259   3.289 -0.5197  0.3528  0.1963
   78EC      H3  777   2.902   4.089   3.425 -0.5321  1.2979  0.5463
   78EC      H4  778   3.048   4.141   3.329  0.8934 -1.3624  1.0781
   78EC      C3  779   2.843   4.399   3.331 -0.5613  0.3232  0.3543
   78EC      O3  780   2.806   4.499   3.262  0.2385 -0.1593 -0.2570
   79EC      C1  781   2.723   3.510   3.155  0.5143 -0.8526 -0.0135
   79EC      C2  782   2.707   3.414   3.020 -0.0167  0.0783 -0.5194
   79EC      O1  783   2.577   3.533   3.203  0.2379 -0.0968  0.3057
   79EC      H1  784   2.775   3.602   3.130 -0.3143 -0.2542  0.4215
   79EC      H2  785   2.775   3.460   3.237 -2.1366 -1.8467  1.2020
   79EC      O2  786   2.558   3.417   3.000 -0.0491  0.9551 -0.2282
   79EC      H3  787   2.738   3.319   3.064 -0.1297 -0.5721 -1.7952
   79EC      H4  788   2.779   3.434   2.940  2.3998  1.5206  1.8431
   79EC      C3  789   2.478   3.462   3.124 -0.0183 -0.5366 -0.3289
   79EC      O3  790   2.353   3.471   3.134  0.2390  0.0769  0.0039
   80EC      C1  791   2.544   1.111   1.533 -0.1488 -0.3702  0.6202
   80EC      C2  792   2.575   1.162   1.388  0.0443 -0.0699  0.4435
   80EC      O1  793   2.672   1.138   1.608  0.0005 -0.0840  0.3214
   80EC      H1  794   2.518   1.006   1.518 -0.3892 -0.3796  1.0604
   80EC      H2  795   2.465   1.151   1.597  0.7003 -1.5671  2.5164
   80EC      O2  796   2.720   1.214   1.395 -0.1399 -0.1515  0.0064
   80EC      H3  797   2.510   1.246   1.366  0.7820  0.2976 -0.3768
   80EC      H4  798   2.568   1.085   1.311  1.4913 -1.1934  1.3768
   80EC      C3  799   2.774   1.215   1.534  0.1446 -0.5889 -0.0900
   80EC      O3  800   2.893   1.238   1.560 -0.6717 -0.1327 -0.1026
   81EC      C1  801   1.255   2.933   3.020 -0.0561 -0.0493  0.1992
   81EC      C2  802   1.212   2.998   3.158  0.2169 -0.4644  0.1968
   81EC      O1  803   1.122   2.921   2.953  0.4551  0.8040 -0.6231
   81EC      H1  804   1.299   2.836   3.041 -1.5641 -0.4471  1.8259
   81EC      H2  805   1.327   2.987   2.959  0.3073 -1.6033 -0.7920
   81EC      O2  806   1.071   3.049   3.139 -0.5109  0.4047  0.3494
   81EC      H3  807   1.279   3.078   3.190 -0.6910  0.6832 -0.6678
   81EC      H4  808   1.201   2.924   3.238 -0.7205 -0.2524  0.2744
   81EC      C3  809   1.012   3.013   3.009  1.0225  0.8267  0.6908
   81EC      O3  810   0.892   3.024   2.981  0.2300  0.2665 -0.1074
   82EC      C1  811   3.870   3.765   2.870 -0.5270  0.7977  0.3774
   82EC      C2  812   3.898   3.611   2.824  0.7031 -0.0895  0.1387
   82EC      O1  813   3.921   3.844   2.747  0.1879 -0.4133 -0.1791
   82EC      H1  814   3.935   3.793   2.953  2.4476 -0.8591 -1.1944
   82EC      H2  815   3.770   3.800   2.894 -0.2432  0.7680  1.6785
   82EC      O2  816   3.995   3.628   2.710  0.5765  1.1152  0.4166
   82EC      H3  817   3.802   3.574   2.787 -0.3835  1.4973  1.2395
   82EC      H4  818   3.931   3.562   2.916  1.2229  0.6778  0.3645
   82EC      C3  819   4.020   3.767   2.662 -0.0183  0.1666  0.6122
   82EC      O3  820   4.044   3.803   2.548  0.1139  0.4117  0.1056
   83EC      C1  821   3.976   0.896   0.091  0.2992  0.5186 -0.2789
   83EC      C2  822   3.815   0.897   0.076  0.1198 -0.4381 -0.0761
   83EC      O1  823   4.000   0.756   0.148 -0.3571  0.0760  0.4965
   83EC      H1  824   4.012   0.979   0.153 -0.9528  1.6934 -1.0634
   83EC      H2  825   4.014   0.899   4.499 -1.8113 -2.7216 -1.2983
   83EC      O2  826   3.774   0.767   0.142 -0.0283  1.0253 -0.7425
   83EC      H3  827   3.782   0.886   4.483 -0.6921  0.9136  0.0049
   83EC      H4  828   3.755   0.980   0.114 -0.6940 -0.5181 -1.1457
   83EC      C3  829   3.884   0.678   0.185  1.0423 -0.4744 -0.3309
   83EC      O3  830   3.869   0.567   0.233  0.1744  0.3568  0.4896
   84EC      C1  831   2.267   3.344   3.687  0.2968  0.6765 -0.1259
   84EC      C2  832   2.129   3.363   3.613  0.5983 -0.0555 -0.8232
   84EC      O1  833   2.235   3.236   3.796 -0.5698 -0.3357 -0.2446
   84EC      H1  834   2.301   3.433   3.739  2.8763  0.3778 -1.1730
   84EC      H2  835   2.347   3.308   3.622  1.7805 -0.1232  2.0588
   84EC      O2  836   2.030   3.275   3.698  0.1323 -0.5295  0.1825
   84EC      H3  837   2.124   3.334   3.508 -1.0565  1.0989 -1.0937
   84EC      H4  838   2.098   3.468   3.614  0.2968 -0.1319  0.5091
   84EC      C3  839   2.095   3.178   3.795  0.4793  0.2681  0.1783
   84EC      O3  840   2.036   3.125   3.884  0.4373 -0.1407  0.0522
   85EC      C1  841   0.479   2.508   3.951  0.1965  0.1953  0.4439
   85EC      C2  842   0.607   2.553   3.861  0.4650 -0.4212 -0.1927
   85EC      O1  843   0.470   2.362   3.918  0.0329 -0.3112  0.4241
   85EC      H1  844   0.388   2.562   3.924 -0.5855 -1.2524  0.0784
   85EC      H2  845   0.504   2.526   4.055  0.7549 -1.0481  0.5314
   85EC      O2  846   0.649   2.428   3.789 -0.0076  0.2806 -0.1011
   85EC      H3  847   0.685   2.592   3.927  0.2385 -0.9294  0.3780
   85EC      H4  848   0.576   2.616   3.778 -1.2750 -2.0763 -0.8635
   85EC      C3  849   0.563   2.309   3.811  0.7706  0.1362  0.2014
   85EC      O3  850   0.572   2.193   3.769  0.0319  0.3025 -0.0692
   86EC      C1  851   4.469   0.535   0.670 -0.2452 -0.2332  0.8685
   86EC      C2  852   0.068   0.443   0.755 -0.3491 -0.5210  0.5184
   86EC      O1  853   4.374   0.576   0.779  0.3137 -0.1105 -0.4696
   86EC      H1  854   4.431   0.472   0.590 -0.4589  0.7045  0.2220
   86EC      H2  855   0.010   0.621   0.628  1.3080 -0.8479  1.4198
   86EC      O2  856   0.022   0.460   0.899  0.4257  0.1149  0.2620
   86EC      H3  857   0.169   0.462   0.718 -0.8775 -0.5639 -1.0483
   86EC      H4  858   0.043   0.341   0.724 -1.8147  0.2123 -0.8788
   86EC      C3  859   4.395   0.526   0.917 -0.3349  0.5999  0.0392
   86EC      O3  860   4.312   0.518   1.011 -0.1605 -0.1098 -0.1818
   87EC      C1  861   2.267   3.721   3.017 -0.2229  0.0394  0.0409
   87EC      C2  862   2.216   3.867   3.001 -0.5173 -0.0110  0.0636
   87EC      O1  863   2.322   3.691   2.882 -0.2522 -0.3912 -0.7814
   87EC      H1  864   2.191   3.649   3.047 -1.4466  1.2608 -0.0542
   87EC      H2  865   2.346   3.703   3.090 -2.6170  0.5891  2.9428
   87EC      O2  866   2.254   3.909   2.858 -0.3027  0.4306 -0.4475
   87EC      H3  867   2.275   3.932   3.065 -1.8094  0.6253  0.6330
   87EC      H4  868   2.111   3.880   3.027 -0.6319  2.6748 -1.3531
   87EC      C3  869   2.298   3.793   2.776  0.2881 -1.0594 -0.1728
   87EC      O3  870   2.356   3.798   2.666  0.1189  0.3596 -0.1278
   88EC      C1  871   1.238   3.006   3.713  0.0536  0.2222 -0.8179
   88EC      C2  872   1.303   2.999   3.561 -0.4957 -0.5037  0.2515
   88EC      O1  873   1.315   3.124   3.772  0.4728 -0.1194 -0.3600
   88EC      H1  874   1.260   2.915   3.770 -1.8605  0.6576  0.7149
   88EC      H2  875   1.131   3.017   3.731  0.2120  0.7083 -0.1313
   88EC      O2  876   1.423   3.097   3.565 -0.2055  0.1169  0.5152
   88EC      H3  877   1.221   3.030   3.496 -1.0355 -1.0569  0.6589
   88EC      H4  878   1.324   2.901   3.519  1.4214  0.3834 -0.9942
   88EC      C3  879   1.436   3.163   3.693  0.2890 -0.7807  0.0851
   88EC      O3  880   1.529   3.233   3.732  0.5885 -0.3664 -0.5817
   89EC      C1  881   1.120   2.197   2.531  0.0246  0.5326  0.2120
   89EC      C2  882   1.202   2.161   2.667 -0.0367  0.3064  0.2014
   89EC      O1  883   1.107   2.344   2.539  0.1038  0.0239 -0.1456
   89EC      H1  884   1.017   2.163   2.529 -0.5789  1.6294  4.2818
   89EC      H2  885   1.179   2.179   2.441 -0.1585 -0.3447  0.2645
   89EC      O2  886   1.215   2.302   2.733  0.4948  0.6751 -1.0142
   89EC      H3  887   1.301   2.117   2.654  0.5915  1.1163  1.9145
   89EC      H4  888   1.144   2.090   2.726 -0.4794  0.7250  0.2747
   89EC      C3  889   1.188   2.411   2.647 -0.7205 -0.3515  0.1203
   89EC      O3  890   1.193   2.528   2.686  0.0297  0.0710 -0.3520
   90EC      C1  891   2.173   3.945   0.485 -0.4400  0.3151  0.5298
   90EC      C2  892   2.267   4.030   0.583  0.4211 -0.0722 -0.2754
   90EC      O1  893   2.033   3.964   0.538  0.1939 -0.0197  0.1232
   90EC      H1  894   2.192   3.842   0.514 -1.6420  0.2863  1.3075
   90EC      H2  895   2.180   3.960   0.377  0.6083 -2.5407  0.1031
   90EC      O2  896   2.168   4.104   0.669 -0.0401  0.2606  0.1143
   90EC      H3  897   2.334   4.107   0.542 -1.1091  2.7242  2.1046
   90EC      H4  898   2.321   3.962   0.649 -0.4375 -0.3681  0.1230
   90EC      C3  899   2.030   4.065   0.651  0.1457  0.0769  0.4902
   90EC      O3  900   1.928   4.097   0.709  0.3491 -0.5195  0.1642
   91EC      C1  901   2.756   3.816   2.082  0.1638 -0.5337  0.9110
   91EC      C2  902   2.895   3.741   2.064 -0.2500  0.0080 -0.1641
   91EC      O1  903   2.708   3.763   2.209  0.1299 -0.3617 -0.3228
   91EC      H1  904   2.685   3.799   2.001 -1.1194 -2.6362  2.3721
   91EC      H2  905   2.765   3.925   2.092  0.8864 -0.4110 -0.8247
   91EC      O2  906   2.912   3.667   2.191 -0.5379  0.2452 -0.1723
   91EC      H3  907   2.981   3.807   2.049 -0.0722 -0.0819  0.4566
   91EC      H4  908   2.897   3.682   1.972 -0.5018 -0.1786 -0.0500
   91EC      C3  909   2.806   3.676   2.289 -0.2268 -0.1626 -0.5835
   91EC      O3  910   2.818   3.666   2.412 -0.6957 -0.7831  0.1477
   92EC      C1  911   4.079   3.355   4.276  0.4461  1.0098 -0.1372
   92EC      C2  912   3.946   3.326   4.372 -0.3334 -0.3933  0.2009
   92EC      O1  913   4.029   3.457   4.179  0.3152  0.5061 -0.2860
   92EC      H1  914   4.125   3.269   4.227  0.1736  0.5632  0.3693
   92EC      H2  915   4.154   3.411   4.332  0.6760  0.4741  0.0978
   92EC      O2  916   3.857   3.443   4.338  0.6780 -0.7060 -0.5239
   92EC      H3  917   3.977   3.345   4.475  0.7572  1.1184 -0.3807
   92EC      H4  918   3.899   3.231   4.347  0.6232 -0.8855  0.2247
   92EC      C3  919   3.884   3.504   4.203  0.6867  0.4956  0.7811
   92EC      O3  920   3.837   3.612   4.158 -0.2380 -0.4720  0.6007
   93EC      C1  921   3.931   2.054   3.331  0.5150  0.0011 -0.3181
   93EC      C2  922   4.039   1.943   3.381  0.4246 -0.2105 -0.0477
   93EC      O1  923   4.011   2.140   3.240  0.1798  0.0390  0.0403
   93EC      H1  924   3.904   2.119   3.415 -1.7341  1.7958 -2.3062
   93EC      H2  925   3.841   2.010   3.288  0.5170 -0.0782 -0.2417
   93EC      O2  926   4.164   1.979   3.300  0.7567 -0.2779  0.0273
   93EC      H3  927   4.015   1.837   3.369 -0.2355 -0.4067  2.3892
   93EC      H4  928   4.065   1.953   3.487 -0.6856  1.6280  0.0914
   93EC      C3  929   4.149   2.101   3.214 -0.6516 -0.6226 -0.3321
   93EC      O3  930   4.220   2.154   3.136 -0.2734 -0.0425  0.1538
   94EC      C1  931   1.732   2.397   1.062 -0.5611 -0.1227 -0.0360
   94EC      C2  932   1.698   2.556   1.065  0.8379  0.4297  0.3821
   94EC      O1  933   1.620   2.328   1.134  0.3166  0.2775  0.0607
   94EC      H1  934   1.830   2.379   1.106 -0.0353  1.1678 -0.6089
   94EC      H2  935   1.745   2.355   0.962 -1.3494 -0.8002  0.1354
   94EC      O2  936   1.555   2.548   1.119 -0.7231 -0.4012 -0.4706
   94EC      H3  937   1.720   2.603   0.969 -1.9324 -2.1078 -1.6838
   94EC      H4  938   1.744   2.609   1.148  1.0054 -0.3344  0.7824
   94EC      C3  939   1.514   2.421   1.193 -0.4622  0.4674  0.6392
   94EC      O3  940   1.394   2.405   1.214 -0.1213  0.0156  0.4775
   95EC      C1  941   2.839   2.361   4.320 -0.6889 -0.4796 -0.4831
   95EC      C2  942   2.728   2.460   4.379 -0.2765 -0.6527  0.3368
   95EC      O1  943   2.762   2.247   4.256 -0.1900  0.2421 -0.6197
   95EC      H1  944   2.900   2.317   4.400  0.3002 -0.9889 -1.4889
   95EC      H2  945   2.913   2.411   4.258  1.2804 -1.7568  0.7167
   95EC      O2  946   2.600   2.389   4.351  0.2310  0.3311  0.1883
   95EC      H3  947   2.723   2.551   4.318 -0.2020 -1.9904 -1.7561
   95EC      H4  948   2.742   2.484   4.484 -1.1117  1.4130  0.0368
   95EC      C3  949   2.611   2.259   4.279 -0.1194  0.0492  0.5157
   95EC      O3  950   2.527   2.215   4.202  0.4233  0.1412  0.2847
   96EC      C1  951   2.855   3.441   0.596 -0.3575  0.2672  0.2111
   96EC      C2  952   2.864   3.425   0.435 -0.3155 -0.6491 -0.0911
   96EC      O1  953   2.721   3.393   0.632  0.1219  0.3422 -0.4966
   96EC      H1  954   2.858   3.546   0.624  0.2860  0.3386 -0.1030
   96EC      H2  955   2.932   3.384   0.648  3.1306  2.0734 -2.5277
   96EC      O2  956   2.726   3.371   0.400 -0.0890 -0.1287  0.5529
   96EC      H3  957   2.943   3.357   0.403 -0.8540 -0.7752 -1.2094
   96EC      H4  958   2.869   3.530   0.406 -2.5277 -0.9926 -2.0218
   96EC      C3  959   2.632   3.360   0.516  0.2379  0.3002 -0.7413
   96EC      O3  960   2.509   3.355   0.506 -0.0528  0.2943 -0.2448
   97EC      C1  961   1.637   1.354   3.310 -0.3260  0.4899 -0.6383
   97EC      C2  962   1.752   1.354   3.197  0.9604 -0.5122  0.2183
   97EC      O1  963   1.588   1.498   3.310  0.4876  0.9229  0.2997
   97EC      H1  964   1.677   1.332   3.410 -1.3195  2.2174  0.1735
   97EC      H2  965   1.559   1.281   3.288 -1.4280  0.4750  2.7504
   97EC      O2  966   1.734   1.488   3.128  0.3668  0.1800  0.3055
   97EC      H3  967   1.737   1.269   3.131  0.5573  1.2460 -2.0799
   97EC      H4  968   1.853   1.349   3.238  0.4958 -1.7745  1.2830
   97EC      C3  969   1.648   1.582   3.202  0.3234 -0.5315 -0.1677
   97EC      O3  970   1.607   1.695   3.169 -0.1123  0.2557  0.4787
   98EC      C1  971   3.849   2.299   2.829  0.1391 -0.4089  0.9649
   98EC      C2  972   3.912   2.181   2.735 -0.1022 -0.6754 -0.0061
   98EC      O1  973   3.794   2.223   2.948 -0.0796 -0.1129  0.3550
   98EC      H1  974   3.774   2.347   2.765  1.5962 -0.1434 -0.6282
   98EC      H2  975   3.923   2.370   2.866 -0.8487  1.0043  0.3222
   98EC      O2  976   3.867   2.054   2.807 -0.4650  0.3788  0.1267
   98EC      H3  977   4.020   2.183   2.745  0.0045  0.9223 -1.1285
   98EC      H4  978   3.883   2.186   2.630 -0.9414  0.0699  0.2483
   98EC      C3  979   3.805   2.077   2.940  0.0451  1.4968  0.2475
   98EC      O3  980   3.771   1.992   3.023 -0.0829 -0.9375  0.1719
   99EC      C1  981   0.785   4.490   0.285  0.1980  0.2167 -0.4062
   99EC      C2  982   0.933   4.430   0.325  0.1692 -0.3505 -0.2704
   99EC      O1  983   0.817   0.125   0.278 -0.1070 -0.0368 -0.3000
   99EC      H1  984   0.715   4.490   0.369  1.9288 -2.0054  1.1713
   99EC      H2  985   0.756   4.440   0.193 -0.8318 -1.4228  0.7549
   99EC      O2  986   1.022   0.043   0.348  0.2448 -0.3210 -0.4188
   99EC      H3  987   0.965   4.380   0.234  1.5065  0.9244 -0.5509
   99EC      H4  988   0.922   4.365   0.412  1.5566  0.8837  0.8998
   99EC      C3  989   0.957   0.171   0.300  0.8233  0.6448 -0.0592
   99EC      O3  990   1.000   0.288   0.313  0.0375  0.2693 -0.1761
  100EC      C1  991   3.424   1.377   2.383  0.1337  0.1324  0.4420
  100EC      C2  992   3.503   1.263   2.468 -0.0227  0.0378 -0.3309
  100EC      O1  993   3.384   1.487   2.483  0.3019 -0.0639 -0.7650
  100EC      H1  994   3.338   1.349   2.322  2.0244  1.0235 -2.8975
  100EC      H2  995   3.496   1.434   2.325  0.4734 -2.4355 -1.8362
  100EC      O2  996   3.494   1.324   2.605  0.0923 -0.0825  0.2974
  100EC      H3  997   3.605   1.233   2.442 -1.0205 -3.6135 -0.5890
  100EC      H4  998   3.449   1.168   2.472  1.1927 -0.6745 -0.3191
  100EC      C3  999   3.417   1.450   2.626 -0.8748 -0.5795 -0.2388
  100EC      O3 1000   3.433   1.517   2.726 -0.3420 -0.1834  0.6965
  101EC      C1 1001   1.990   3.351   3.081  0.4932 -0.5005  0.4074
  101EC      C2 1002   2.045   3.374   3.229 -0.2473  0.1239  1.2147
  101EC      O1 1003   1.840   3.385   3.092  0.4927  0.4456  0.3719
  101EC      H1 1004   1.999   3.246   3.056  4.0574  0.3775 -3.0250
  101EC      H2 1005   2.044   3.412   3.009 -1.5784 -0.0854 -0.8737
  101EC      O2 1006   1.915   3.385   3.313 -0.0515 -0.5040 -0.0941
  101EC      H3 1007   2.107   3.464   3.228 -1.3334  0.9977  4.0214
  101EC      H4 1008   2.107   3.287   3.248 -1.6709 -1.3934 -0.6967
  101EC      C3 1009   1.793   3.409   3.234 -0.0456 -1.1410  0.3743
  101EC      O3 1010   1.677   3.390   3.268 -0.4125  0.5685 -0.4631
  102EC      C1 1011   2.335   2.024   0.391  0.3449  0.5430  0.7247
  102EC      C2 1012   2.176   2.029   0.424  0.5572  0.7275  0.0567
  102EC      O1 1013   2.394   2.144   0.455 -0.0776 -0.0395 -0.1657
  102EC      H1 1014   2.361   2.029   0.286  0.5003 -0.3563  0.7078
  102EC      H2 1015   2.398   1.940   0.423  3.0588  2.0409 -0.3508
  102EC      O2 1016   2.163   2.173   0.470  0.0491  0.5364  0.0017
  102EC      H3 1017   2.144   1.959   0.501  0.9256  0.8419  0.3214
  102EC      H4 1018   2.113   2.015   0.337 -0.5790  0.6528  0.8665
  102EC      C3 1019   2.293   2.239   0.512  0.3689 -0.3431 -0.2064
  102EC      O3 1020   2.309   2.341   0.582 -0.0849 -0.3427  0.1604
  103EC      C1 1021   3.255   0.628   3.141  0.0996  0.1266 -0.2597
  103EC      C2 1022   3.248   0.740   3.027 -0.3014  0.5575 -0.2920
  103EC      O1 1023   3.405   0.613   3.157 -0.1351 -0.0996 -0.7742
  103EC      H1 1024   3.211   0.530   3.122 -1.6671  0.7594  0.3242
  103EC      H2 1025   3.218   0.656   3.240 -1.0332 -2.6658  0.1901
  103EC      O2 1026   3.390   0.792   3.015 -0.0823 -0.1113  0.1725
  103EC      H3 1027   3.179   0.821   3.054 -2.1813 -0.8746 -0.5748
  103EC      H4 1028   3.229   0.694   2.930  2.9456 -0.6224 -0.4775
  103EC      C3 1029   3.489   0.713   3.088 -0.2500 -0.0914 -0.3199
  103EC      O3 1030   3.613   0.708   3.069  0.0042 -0.6599 -0.9735
  104EC      C1 1031   2.423   2.058   0.945 -0.0289  1.3731 -0.6293
  104EC      C2 1032   2.333   2.164   0.861  0.0146  0.0228  0.2092
  104EC      O1 1033   2.368   1.928   0.896  0.2125  0.9035  0.1183
  104EC      H1 1034   2.399   2.064   1.051  0.9477  2.1051 -0.4327
  104EC      H2 1035   2.532   2.069   0.944  0.2436 -0.7914 -1.7004
  104EC      O2 1036   2.242   2.080   0.775 -0.1573 -0.4482  0.4197
  104EC      H3 1037   2.397   2.199   0.779  1.5582 -0.7293  1.0503
  104EC      H4 1038   2.293   2.251   0.913  0.1087 -0.3093  0.8469
  104EC      C3 1039   2.253   1.936   0.802  0.3155 -0.1925 -0.3043
  104EC      O3 1040   2.189   1.840   0.759  0.3951  0.0131 -0.1192
  105EC      C1 1041   1.586   0.159   2.727 -0.3772 -0.5029 -0.1794
  105EC      C2 1042   1.451   0.132   2.655 -0.4520 -0.7027 -0.1477
  105EC      O1 1043   1.640   0.022   2.752 -0.9079 -0.1532  0.1283
  105EC      H1 1044   1.573   0.187   2.831 -1.9047 -0.7665 -0.2822
  105EC      H2 1045   1.655   0.227   2.675 -0.6915 -0.4251 -0.4950
  105EC      O2 1046   1.453   4.494   2.630 -0.0154  0.1283  0.0862
  105EC      H3 1047   1.446   0.184   2.559  2.0888  1.1720  0.6217
  105EC      H4 1048   1.364   0.166   2.711  0.9919  0.0520  1.7326
  105EC      C3 1049   1.584   4.424   2.668 -0.2480 -0.4698 -0.2620
  105EC      O3 1050   1.604   4.303   2.693 -0.2194  0.2591  0.2858
  106EC      C1 1051   2.319   2.705   2.388 -0.0755  0.0953  0.0978
  106EC      C2 1052   2.391   2.767   2.519  0.9229 -0.5469 -0.3743
  106EC      O1 1053   2.170   2.728   2.421  0.4200 -0.2203  0.1840
  106EC      H1 1054   2.335   2.600   2.366  1.5661  0.4331 -0.4350
  106EC      H2 1055   2.331   2.756   2.292 -1.3371  2.2411  1.0017
  106EC      O2 1056   2.270   2.820   2.602  0.3033  0.4797  0.3067
  106EC      H3 1057   2.473   2.835   2.499  1.4879 -1.0196  0.3335
  106EC      H4 1058   2.437   2.683   2.571  2.2865  0.1720 -0.3994
  106EC      C3 1059   2.141   2.824   2.526  0.3028  0.1177  0.2992
  106EC      O3 1060   2.036   2.866   2.566  0.8363 -0.1047  0.6880
  107EC      C1 1061   2.344   2.807   2.988  0.4812  0.2399 -0.5983
  107EC      C2 1062   2.256   2.935   2.943  0.3491  0.6917  0.7117
  107EC      O1 1063   2.461   2.871   3.047 -0.0631  0.2165 -0.3097
  107EC      H1 1064   2.383   2.741   2.911  3.2509 -1.0385  1.6742
  107EC      H2 1065   2.281   2.756   3.061 -0.7874  0.2617 -1.6583
  107EC      O2 1066   2.330   3.055   3.000 -0.2373 -0.3529  0.4197
  107EC      H3 1067   2.151   2.929   2.972  0.2275 -0.6600  0.0819
  107EC      H4 1068   2.255   2.927   2.835  0.4539 -1.0527  0.8093
  107EC      C3 1069   2.451   3.021   3.076 -0.5929  0.0013 -0.0150
  107EC      O3 1070   2.551   3.087   3.079 -0.0000 -0.0290  0.2919
  108EC      C1 1071   1.344   3.280   2.181 -0.2701  0.0717 -0.1544
  108EC      C2 1072   1.279   3.206   2.052 -0.9558  0.5382  0.3782
  108EC      O1 1073   1.239   3.382   2.209 -0.0936 -0.3612 -0.2149
  108EC      H1 1074   1.447   3.312   2.171  0.6546 -1.0393  3.8751
  108EC      H2 1075   1.345   3.218   2.271 -1.0276  1.3318  0.7750
  108EC      O2 1076   1.138   3.256   2.040 -0.3819 -0.3440  0.1429
  108EC      H3 1077   1.256   3.100   2.061 -1.2188  0.4164 -1.3469
  108EC      H4 1078   1.331   3.221   1.958 -1.1461 -0.2426  0.1438
  108EC      C3 1079   1.106   3.368   2.135 -0.9389 -0.2076 -0.7418
  108EC      O3 1080   1.020   3.454   2.129 -0.0133  0.7874  0.6782
  109EC      C1 1081   3.918   3.803   1.472  0.0884  0.0256 -0.3538
  109EC      C2 1082   4.001   3.675   1.440 -0.4468  0.1197 -0.4486
  109EC      O1 1083   3.946   3.828   1.619  0.1729  0.4945  0.2238
  109EC      H1 1084   3.810   3.796   1.458 -0.1836  2.6123 -0.0912
  109EC      H2 1085   3.952   3.880   1.403  2.0696 -0.7458 -0.2950
  109EC      O2 1086   4.063   3.636   1.573 -0.1735 -0.2159 -1.0007
  109EC      H3 1087   4.082   3.707   1.374 -0.2058 -0.2500 -0.3310
  109EC      H4 1088   3.937   3.597   1.399  0.4533 -1.9021  1.7628
  109EC      C3 1089   4.003   3.709   1.689 -0.0498 -0.2022 -0.5171
  109EC      O3 1090   4.060   3.723   1.799  0.2071 -0.4137 -0.1096
  110EC      C1 1091   0.988   3.877   1.387  0.0607 -0.2059  0.2834
  110EC      C2 1092   1.055   3.787   1.498  0.5912 -0.0996 -0.2414
  110EC      O1 1093   0.926   3.989   1.464  0.4423  0.1529  0.5926
  110EC      H1 1094   0.910   3.818   1.339 -0.9450  1.1872  0.1757
  110EC      H2 1095   1.066   3.906   1.317 -0.4242  1.4432  0.4005
  110EC      O2 1096   1.027   3.855   1.628 -0.5950 -0.8427 -0.2217
  110EC      H3 1097   1.162   3.770   1.483  0.7986  0.8366  0.1257
  110EC      H4 1098   1.009   3.689   1.486  1.0084 -0.7893  2.9058
  110EC      C3 1099   0.937   3.977   1.618 -0.2074  0.8292  0.6752
  110EC      O3 1100   0.935   4.066   1.700  0.2488  0.1330  0.2523
  111EC      C1 1101   2.138   3.899   1.062 -0.0930 -0.2471  0.3879
  111EC      C2 1102   2.060   3.817   1.184  0.8762 -0.0538  0.0654
  111EC      O1 1103   2.275   3.838   1.060 -0.5115  0.1624 -0.3381
  111EC      H1 1104   2.148   4.007   1.074  1.2967 -0.1426 -1.2925
  111EC      H2 1105   2.105   3.885   0.959 -0.7972 -0.2803  0.6118
  111EC      O2 1106   2.171   3.723   1.226 -0.3101  0.1246  0.2425
  111EC      H3 1107   1.966   3.768   1.159  1.1579 -0.6944  0.2411
  111EC      H4 1108   2.035   3.876   1.272  1.6548 -1.8882  1.5928
  111EC      C3 1109   2.311   3.749   1.179 -0.1836  0.0051  0.0985
  111EC      O3 1110   2.411   3.681   1.195  0.4909 -0.3009  0.4497
  112EC      C1 1111   2.688   3.134   3.348 -0.0491  0.2071 -0.0562
  112EC      C2 1112   2.655   3.095   3.495  0.0071  0.2211  0.3076
  112EC      O1 1113   2.828   3.204   3.355 -0.2269 -0.4338 -0.0797
  112EC      H1 1114   2.616   3.197   3.296 -1.0628 -1.8839 -1.3261
  112EC      H2 1115   2.687   3.044   3.287 -2.6896 -1.1744  1.8629
  112EC      O2 1116   2.783   3.136   3.570 -0.2039 -0.1671 -0.6151
  112EC      H3 1117   2.641   2.988   3.503 -0.2039  0.2251  0.0172
  112EC      H4 1118   2.575   3.159   3.532 -1.7079 -1.6249 -0.0870
  112EC      C3 1119   2.891   3.196   3.489  0.3376 -0.6719 -0.9583
  112EC      O3 1120   2.990   3.262   3.528  0.0034  0.2471  0.5353
  113EC      C1 1121   3.184   0.406   4.271 -0.0929 -0.1877 -0.5829
  113EC      C2 1122   3.121   0.516   4.371 -0.2715 -0.6229  0.1676
  113EC      O1 1123   3.199   0.484   4.141 -0.8154 -0.0024  0.4243
  113EC      H1 1124   3.121   0.320   4.246  2.2786 -1.8183 -1.3295
  113EC      H2 1125   3.280   0.368   4.307 -1.3379 -1.1811  1.9819
  113EC      O2 1126   3.108   0.639   4.288 -0.1586 -0.0204  0.9917
  113EC      H3 1127   3.189   0.546   4.451  0.4682 -0.6355 -0.4376
  113EC      H4 1128   3.024   0.483   4.407 -0.1532 -0.2013  0.8846
  113EC      C3 1129   3.153   0.630   4.143  0.1213 -0.0109  0.1160
  113EC      O3 1130   3.187   0.723   4.070 -0.3211 -0.0004  0.5656
  114EC      C1 1131   2.778   1.479   4.016 -0.2512 -0.6203  0.6775
  114EC      C2 1132   2.633   1.518   3.955  0.4163  0.1612  0.3812
  114EC      O1 1133   2.749   1.345   4.085 -0.0980 -0.0812  0.4843
  114EC      H1 1134   2.810   1.551   4.092 -1.6945 -0.5649  1.2590
  114EC      H2 1135   2.861   1.471   3.945  0.0589  2.5591  0.5368
  114EC      O2 1136   2.546   1.394   3.979 -0.6841 -0.0889 -0.1876
  114EC      H3 1137   2.638   1.544   3.849  0.4012  1.4132  0.6768
  114EC      H4 1138   2.584   1.598   4.010 -0.7057 -0.9245  0.9905
  114EC      C3 1139   2.610   1.299   4.079 -0.3140  0.1618 -0.1518
  114EC      O3 1140   2.564   1.186   4.106 -0.0029 -0.1151 -0.1231
  115EC      C1 1141   2.054   3.514   0.575 -0.6857 -0.3154  0.0921
  115EC      C2 1142   2.013   3.646   0.654 -0.3865  0.4682  0.4492
  115EC      O1 1143   2.006   3.401   0.666  0.3691 -0.3119  0.3611
  115EC      H1 1144   2.163   3.505   0.567 -0.6476  1.3070 -1.5708
  115EC      H2 1145   2.010   3.506   0.476 -2.1351 -0.0570  0.6970
  115EC      O2 1146   1.944   3.598   0.781  0.2367 -0.5877 -0.1973
  115EC      H3 1147   1.953   3.711   0.591 -1.6731 -1.5879 -0.5339
  115EC      H4 1148   2.101   3.699   0.691  2.6879 -1.9815 -2.7025
  115EC      C3 1149   1.943   3.452   0.800 -0.0399 -0.3833 -0.1583
  115EC      O3 1150   1.864   3.382   0.866 -0.0152  0.0447  0.0567
  116EC      C1 1151   3.582   3.382   4.458 -0.8977 -0.2262  0.3396
  116EC      C2 1152   3.451   3.306   0.004 -0.4761 -0.3687  0.7169
  116EC      O1 1153   3.526   3.458   4.341 -0.0962 -0.5458 -0.0586
  116EC      H1 1154   3.650   3.307   4.416  1.6798  0.9693  2.1471
  116EC      H2 1155   3.622   3.452   0.020 -0.3110 -1.3869  1.1771
  116EC      O2 1156   3.339   3.358   4.424 -0.5689  0.4716 -0.1089
  116EC      H3 1157   3.438   3.341   0.106  0.3034  1.4984  0.2260
  116EC      H4 1158   3.458   3.198   4.500  1.9716  0.0186 -2.3459
  116EC      C3 1159   3.377   3.449   4.320  0.7579 -0.2305 -0.2565
  116EC      O3 1160   3.317   3.467   4.218  0.0970 -1.0589  0.9803
  117EC      C1 1161   4.261   2.611   0.251  0.4758  0.3219  0.7106
  117EC      C2 1162   4.380   2.599   0.355  0.6508 -0.2056  0.6207
  117EC      O1 1163   4.335   2.614   0.115  0.1453  0.3742  0.2165
  117EC      H1 1164   4.202   2.703   0.253  1.3929  0.9991 -1.0445
  117EC      H2 1165   4.208   2.516   0.241  0.5148  0.5250 -2.6721
  117EC      O2 1166   4.496   2.556   0.269 -0.3710 -0.6997 -0.8777
  117EC      H3 1167   4.367   2.528   0.436 -3.6951 -0.4283 -0.0336
  117EC      H4 1168   4.384   2.702   0.390  1.3672  0.6456 -1.7306
  117EC      C3 1169   4.482   2.587   0.127  0.3302  0.1468  0.7302
  117EC      O3 1170   0.068   2.610   0.052  0.1313  0.3263 -0.2488
  118EC      C1 1171   2.555   3.958   3.170  0.7566  0.0416  0.4024
  118EC      C2 1172   2.666   3.846   3.196 -0.1229  0.3028  0.5592
  118EC      O1 1173   2.562   3.978   3.018  0.0972  0.0870 -0.4152
  118EC      H1 1174   2.593   4.041   3.231  1.3963  0.7476 -0.8988
  118EC      H2 1175   2.472   3.908   3.220  0.5712  1.8674  2.0404
  118EC      O2 1176   2.706   3.805   3.062  0.5299  0.1220 -0.1887
  118EC      H3 1177   2.617   3.763   3.248 -0.0726  0.2114  0.4595
  118EC      H4 1178   2.747   3.901   3.245  0.0524  1.2704 -0.7743
  118EC      C3 1179   2.658   3.896   2.947 -0.7664 -0.0144  0.0955
  118EC      O3 1180   2.655   3.859   2.829  0.4624  0.3998 -0.3552
  119EC      C1 1181   1.863   2.037   0.617 -0.4372 -1.2788 -0.2438
  119EC      C2 1182   1.841   2.126   0.752  0.2248  0.2325  0.7933
  119EC      O1 1183   1.737   1.959   0.609  0.0079 -0.1596  0.3407
  119EC      H1 1184   1.954   1.977   0.616 -0.2484 -0.9936 -1.0693
  119EC      H2 1185   1.860   2.101   0.529  2.0275  0.5307  0.8661
  119EC      O2 1186   1.694   2.099   0.794 -0.3143 -0.6741 -0.1431
  119EC      H3 1187   1.879   2.225   0.725 -1.1277  0.2459 -1.3481
  119EC      H4 1188   1.899   2.088   0.836 -1.8409 -0.8957  1.7893
  119EC      C3 1189   1.630   1.997   0.712 -0.3986 -0.0767 -0.3532
  119EC      O3 1190   1.508   1.983   0.711 -0.8586  0.2132 -0.4508
  120EC      C1 1191   4.224   3.677   0.532  0.3082 -0.7195  0.1823
  120EC      C2 1192   4.212   3.625   0.686 -0.3434  0.7503 -0.1720
  120EC      O1 1193   4.320   3.578   0.466  0.0328  0.2699  0.8106
  120EC      H1 1194   4.270   3.776   0.527  0.9936 -1.0825 -1.6565
  120EC      H2 1195   4.122   3.680   0.495  1.1561  0.5121 -2.3093
  120EC      O2 1196   4.282   3.491   0.687 -0.6028  0.0818  0.3995
  120EC      H3 1197   4.114   3.614   0.732  0.3105 -3.5497  0.6136
  120EC      H4 1198   4.279   3.688   0.745  0.0191 -0.5630  0.8765
  120EC      C3 1199   4.358   3.459   0.556  0.4450  0.7217  0.6758
  120EC      O3 1200   4.455   3.381   0.541 -0.2991  0.1987  0.0142
  121EC      C1 1201   4.287   0.228   4.308  0.4927  0.8709  0.6634
  121EC      C2 1202   4.346   0.336   4.205  0.3931 -0.5872 -0.8846
  121EC      O1 1203   4.200   0.306   4.403  0.2125 -0.2982 -0.5937
  121EC      H1 1204   4.370   0.189   4.366  1.3357  1.0888 -0.3565
  121EC      H2 1205   4.242   0.144   4.255  0.1892  1.7794 -0.5667
  121EC      O2 1206   4.294   0.466   4.258 -0.0366  0.2432  0.0518
  121EC      H3 1207   4.308   0.341   4.103 -2.0319  0.1317 -0.0115
  121EC      H4 1208   4.454   0.346   4.198  0.1759  2.1647 -1.3175
  121EC      C3 1209   4.204   0.450   4.383  0.1788 -0.2128  0.1915
  121EC      O3 1210   4.165   0.541   4.459 -0.4152  0.5238  0.2391
  122EC      C1 1211   4.031   0.576   0.767 -0.2085  0.6669 -0.2065
  122EC      C2 1212   4.080   0.424   0.745 -0.1233 -0.6339  0.3496
  122EC      O1 1213   3.897   0.573   0.696  0.3838 -0.1597 -0.2978
  122EC      H1 1214   4.105   0.645   0.727 -0.5754 -0.2304 -2.6339
  122EC      H2 1215   4.017   0.595   0.873  1.2713 -0.0931  0.1512
  122EC      O2 1216   3.975   0.365   0.660 -0.4493  0.2199 -0.3636
  122EC      H3 1217   4.099   0.371   0.839  1.2332  0.5610  0.8046
  122EC      H4 1218   4.181   0.418   0.705  0.4200 -2.4176  1.8186
  122EC      C3 1219   3.863   0.451   0.621  0.8455  0.0254  0.0443
  122EC      O3 1220   3.810   0.445   0.509 -0.0512  0.4821 -0.4256
  123EC      C1 1221   3.241   0.160   3.949 -0.3606  0.2870 -0.0325
  123EC      C2 1222   3.345   0.247   3.856 -0.5190 -0.4348  0.6661
  123EC      O1 1223   3.107   0.190   3.879 -0.3181 -0.3255 -0.8441
  123EC      H1 1224   3.241   0.179   4.056 -1.8703 -4.1295  0.9554
  123EC      H2 1225   3.271   0.055   3.941  0.1648  0.5239 -1.3701
  123EC      O2 1226   3.256   0.325   3.763 -0.3932 -0.2369 -0.2052
  123EC      H3 1227   3.411   0.175   3.809 -0.4244  0.1060 -0.0528
  123EC      H4 1228   3.413   0.313   3.910  0.1284 -1.3978  1.0491
  123EC      C3 1229   3.115   0.289   3.769 -0.0543  0.2386 -0.0700
  123EC      O3 1230   3.022   0.328   3.693  0.2279  0.6324  0.4443
  124EC      C1 1231   0.522   0.587   1.834  0.3088 -0.3965 -0.1683
  124EC      C2 1232   0.454   0.568   1.978  0.0046 -0.3099  0.3831
  124EC      O1 1233   0.413   0.647   1.751  0.3694 -0.1677 -0.5427
  124EC      H1 1234   0.553   0.488   1.799 -0.3890 -0.7768  0.2583
  124EC      H2 1235   0.606   0.656   1.836 -0.0978  0.1981 -1.8789
  124EC      O2 1236   0.331   0.657   1.966 -0.7331  0.0175  0.0939
  124EC      H3 1237   0.516   0.596   2.063 -1.0761  2.2107  0.4441
  124EC      H4 1238   0.415   0.467   1.992 -3.6640  0.9510  0.3109
  124EC      C3 1239   0.299   0.708   1.830  0.3785 -0.0252 -0.3884
  124EC      O3 1240   0.190   0.720   1.777  0.4414  0.0720 -0.3288
  125EC      C1 1241   2.979   1.355   4.464 -0.1455  0.0995  0.2128
  125EC      C2 1242   3.142   1.363   4.470  0.3403 -0.1247  0.5584
  125EC      O1 1243   2.933   1.416   0.083 -0.0912  0.5196 -0.4406
  125EC      H1 1244   2.960   1.248   4.455 -0.5435  0.1187  0.7655
  125EC      H2 1245   2.937   1.411   4.380 -1.4140 -1.5594 -0.3238
  125EC      O2 1246   3.164   1.438   0.089 -0.3491 -0.2089 -0.0683
  125EC      H3 1247   3.191   1.389   4.376  1.1794 -1.7120  0.5239
  125EC      H4 1248   3.185   1.269   4.503 -0.2875 -1.0676 -1.1729
  125EC      C3 1249   3.039   1.459   0.171 -0.2829 -1.7399  0.3519
  125EC      O3 1250   3.030   1.495   0.289  0.4517  0.2666 -0.1459
  126EC      C1 1251   1.296   2.279   0.782 -0.1110  0.7829 -0.6853
  126EC      C2 1252   1.367   2.417   0.821 -0.2669  0.1235  0.4999
  126EC      O1 1253   1.185   2.267   0.888 -0.2990 -0.7412  0.0627
  126EC      H1 1254   1.359   2.190   0.791 -1.6862 -0.3773 -0.5747
  126EC      H2 1255   1.251   2.273   0.683 -0.6575  0.7221 -0.4369
  126EC      O2 1256   1.282   2.480   0.929 -0.0347  0.4625 -0.1656
  126EC      H3 1257   1.399   2.479   0.738 -1.7682 -1.6382 -1.5104
  126EC      H4 1258   1.455   2.383   0.876 -0.8108 -1.0680  0.6544
  126EC      C3 1259   1.164   2.397   0.973 -0.1505 -0.4423  0.0444
  126EC      O3 1260   1.111   2.410   1.083  0.7619  0.2608 -0.5768
  127EC      C1 1261   1.217   0.317   3.590 -0.3736 -0.6022 -0.2910
  127EC      C2 1262   1.197   0.459   3.519 -0.4680 -0.2545  0.2630
  127EC      O1 1263   1.333   0.257   3.510  0.9529  0.6130 -0.3619
  127EC      H1 1264   1.128   0.256   3.573 -1.3271  0.5144  0.4772
  127EC      H2 1265   1.252   0.327   3.693  1.3481 -0.8079 -0.8277
  127EC      O2 1266   1.307   0.466   3.410  0.2953  0.3586  0.1599
  127EC      H3 1267   1.225   0.540   3.586 -0.6891 -0.5222  0.6899
  127EC      H4 1268   1.096   0.455   3.477  1.0163 -0.3557 -3.7587
  127EC      C3 1269   1.378   0.332   3.393  0.5322 -1.3162 -0.4675
  127EC      O3 1270   1.479   0.310   3.334 -0.9016 -0.5828  0.2885
  128EC      C1 1271   4.109   1.894   4.506 -0.4630  0.4469 -1.2746
  128EC      C2 1272   4.167   1.771   4.419 -0.6433  0.6365  0.1095
  128EC      O1 1273   4.034   1.817   0.110 -0.4703 -0.3213 -0.5382
  128EC      H1 1274   4.052   1.965   4.447 -1.2623  1.1740  0.2928
  128EC      H2 1275   4.181   1.956   0.049  2.3017 -1.8998 -1.9823
  128EC      O2 1276   4.127   1.650   4.498 -0.3601  0.0927  0.0625
  128EC      H3 1277   4.275   1.771   4.403 -0.8010 -1.1535 -1.2758
  128EC      H4 1278   4.123   1.752   4.321  0.8337  0.4643 -0.5417
  128EC      C3 1279   4.065   1.672   0.122  0.2708 -0.5813 -0.0816
  128EC      O3 1280   3.991   1.592   0.185 -0.2148 -0.1272 -0.0064
  129EC      C1 1281   4.184   2.793   3.737 -0.7358  0.3569 -0.7061
  129EC      C2 1282   4.292   2.681   3.766  0.2284  0.3777 -0.5322
  129EC      O1 1283   4.272   2.913   3.706 -0.1581  0.0040  0.5419
  129EC      H1 1284   4.129   2.809   3.830  2.2346  0.2004  1.2076
  129EC      H2 1285   4.114   2.761   3.660 -0.9773  0.7499 -0.6546
  129EC      O2 1286   4.429   2.749   3.745  0.2130 -0.3584 -0.4572
  129EC      H3 1287   4.290   2.591   3.704 -0.2480 -0.5901  0.8388
  129EC      H4 1288   4.270   2.661   3.871 -2.5773  0.4031 -1.0295
  129EC      C3 1289   4.419   2.886   3.699 -0.0586  0.3466 -0.1256
  129EC      O3 1290   4.507   2.963   3.683 -0.0100  0.5864 -0.1247
  130EC      C1 1291   1.067   2.806   2.312  0.4720  0.5480 -0.7414
  130EC      C2 1292   1.209   2.864   2.264  0.4221 -0.1860 -0.0202
  130EC      O1 1293   0.990   2.929   2.347  0.1822  0.0870 -0.0871
  130EC      H1 1294   1.077   2.727   2.387 -0.0143 -0.0933 -1.3386
  130EC      H2 1295   1.022   2.759   2.225 -1.6121 -2.2800  1.6530
  130EC      O2 1296   1.205   3.007   2.306  0.6776 -0.2002  0.2077
  130EC      H3 1297   1.211   2.871   2.155 -2.4569 -0.3632 -0.1604
  130EC      H4 1298   1.298   2.815   2.304  1.5594  0.5681 -1.5228
  130EC      C3 1299   1.075   3.057   2.364 -0.7576  0.6199  0.6635
  130EC      O3 1300   1.028   3.172   2.361  0.2851  0.1480 -0.2392
  131EC      C1 1301   0.914   0.574   0.613 -0.3127 -0.1877  0.7038
  131EC      C2 1302   0.821   0.679   0.547 -0.1297  0.1979  0.0782
  131EC      O1 1303   0.837   0.551   0.744  0.0171  0.1679 -0.7518
  131EC      H1 1304   1.016   0.601   0.643 -0.0444 -1.3350  0.8872
  131EC      H2 1305   0.915   0.487   0.548  0.0691  0.8071 -0.6697
  131EC      O2 1306   0.685   0.669   0.620 -0.0535  0.6709 -0.2998
  131EC      H3 1307   0.828   0.670   0.438 -1.5133 -0.6059  0.0209
  131EC      H4 1308   0.859   0.778   0.570 -1.0587  0.8797 -1.1700
  131EC      C3 1309   0.699   0.602   0.758 -0.7146 -0.2296 -0.2849
  131EC      O3 1310   0.610   0.543   0.817 -0.0975  1.1273  0.9033
  132EC      C1 1311   0.729   3.660   0.793  0.5208 -0.1386 -0.3846
  132EC      C2 1312   0.717   3.519   0.701 -0.2054 -0.4702  0.2813
  132EC      O1 1313   0.588   3.670   0.853 -0.0939 -0.1006 -0.3100
  132EC      H1 1314   0.745   3.748   0.731  0.5767  0.5798  0.6351
  132EC      H2 1315   0.797   3.648   0.878 -1.3609  0.7222  1.3253
  132EC      O2 1316   0.587   3.459   0.757  0.0280  0.3782  0.1866
  132EC      H3 1317   0.801   3.454   0.722  0.3181  0.0174 -0.2874
  132EC      H4 1318   0.716   3.522   0.592  0.6989 -0.5856  0.2679
  132EC      C3 1319   0.510   3.542   0.855 -0.3098 -0.0067 -0.8221
  132EC      O3 1320   0.387   3.530   0.870 -0.1165  0.2214  0.9360
  133EC      C1 1321   3.919   1.391   3.039  0.1059 -0.0120 -0.1587
  133EC      C2 1322   3.785   1.371   3.124  0.4506 -0.4067 -0.2521
  133EC      O1 1323   3.958   1.252   2.996 -0.5633 -0.3339 -0.9397
  133EC      H1 1324   3.990   1.453   3.094 -2.8140  4.5488 -0.9819
  133EC      H2 1325   3.899   1.448   2.949  1.5333 -2.3621 -2.0715
  133EC      O2 1326   3.758   1.219   3.111 -0.2652  0.1680 -0.2129
  133EC      H3 1327   3.703   1.433   3.088 -0.4248  0.1630  2.4770
  133EC      H4 1328   3.796   1.393   3.230  2.6532 -0.0430 -0.5062
  133EC      C3 1329   3.867   1.148   3.039 -0.4343 -0.6185 -0.2873
  133EC      O3 1330   3.874   1.030   3.009 -0.7697 -0.0301  0.4678
  134EC      C1 1331   0.352   1.853   2.059 -0.6204 -0.0487 -0.1785
  134EC      C2 1332   0.500   1.880   1.989 -0.3655 -0.3642  0.9144
  134EC      O1 1333   0.305   1.723   1.992 -0.2682  0.0007 -0.4592
  134EC      H1 1334   0.269   1.923   2.052 -1.1223 -0.6683 -0.4331
  134EC      H2 1335   0.369   1.830   2.164  2.2971  0.8766 -0.3485
  134EC      O2 1336   0.498   1.784   1.869  0.0557 -0.0914 -0.4384
  134EC      H3 1337   0.583   1.859   2.057 -0.4847 -3.9865  0.1764
  134EC      H4 1338   0.513   1.985   1.964  1.2242 -0.1144  2.5490
  134EC      C3 1339   0.380   1.686   1.873  0.0705  0.0912 -0.2087
  134EC      O3 1340   0.354   1.592   1.802  0.4765  0.4688  0.2154
  135EC      C1 1341   1.057   2.476   0.496 -0.3188  0.2329 -0.0683
  135EC      C2 1342   1.138   2.360   0.425 -0.4637  0.7906 -0.4168
  135EC      O1 1343   0.927   2.473   0.420  0.5604 -0.2075 -0.4501
  135EC      H1 1344   1.101   2.571   0.469 -2.3124  1.4658  0.7936
  135EC      H2 1345   1.054   2.462   0.604  1.8137 -0.7090 -0.0841
  135EC      O2 1346   1.052   2.315   0.313 -0.2796  0.2172 -0.5301
  135EC      H3 1347   1.163   2.266   0.474 -0.3771  0.4322 -1.1321
  135EC      H4 1348   1.235   2.399   0.397  0.5999 -0.2106  1.6509
  135EC      C3 1349   0.921   2.381   0.299  0.0057 -0.2762  0.2133
  135EC      O3 1350   0.813   2.330   0.257  0.3612 -0.8467 -0.0137
  136EC      C1 1351   3.392   4.507   2.113  0.2029  0.3907  0.3861
  136EC      C2 1352   3.314   0.012   2.252  0.6691  0.0301  0.3113
  136EC      O1 1353   3.421   0.136   2.075  0.6974  0.2158 -0.8257
  136EC      H1 1354   3.336   4.446   2.041  1.3840 -0.6685  0.3228
  136EC      H2 1355   3.474   4.445   2.152  0.5256  1.1317  0.9051
  136EC      O2 1356   3.285   0.161   2.262  0.1907  0.6345  0.1057
  136EC      H3 1357   3.368   4.500   2.344 -0.4209  1.1414  1.2560
  136EC      H4 1358   3.218   4.470   2.248  1.0476 -0.5730 -1.8218
  136EC      C3 1359   3.363   0.241   2.163 -0.4957 -0.1225  0.1284
  136EC      O3 1360   3.328   0.353   2.127 -0.5189  0.0839  0.7600
  137EC      C1 1361   3.688   2.091   3.665  0.4375  0.2397  0.2099
  137EC      C2 1362   3.614   1.969   3.737  0.4519 -0.4038 -0.4541
  137EC      O1 1363   3.833   2.041   3.666 -0.0201  0.2459  0.7975
  137EC      H1 1364   3.669   2.186   3.715  2.8764  1.4054 -0.9123
  137EC      H2 1365   3.662   2.087   3.559  1.3141  1.2678 -0.0553
  137EC      O2 1366   3.720   1.859   3.748 -0.3254 -0.0813 -0.4212
  137EC      H3 1367   3.522   1.945   3.683 -0.7464 -0.3438  1.4889
  137EC      H4 1368   3.579   1.993   3.837  0.6480  0.1149 -0.5080
  137EC      C3 1369   3.861   1.906   3.723 -0.7513 -0.1769  0.0099
  137EC      O3 1370   3.969   1.843   3.712  0.5664  0.7062  0.2140
  138EC      C1 1371   1.909   2.578   2.751  0.5009  0.1392  0.0594
  138EC      C2 1372   2.007   2.448   2.759  0.7921  0.4646 -0.4094
  138EC      O1 1373   1.782   2.524   2.821  0.0821  0.1882 -0.8807
  138EC      H1 1374   1.895   2.619   2.651  2.0325  1.0737  0.2033
  138EC      H2 1375   1.960   2.664   2.793  2.5083 -1.4368  1.0511
  138EC      O2 1376   1.916   2.336   2.819 -0.0799  0.0393  0.3158
  138EC      H3 1377   2.098   2.480   2.810  0.5640 -1.1813  1.1747
  138EC      H4 1378   2.053   2.413   2.667  0.2119 -1.7563  0.0621
  138EC      C3 1379   1.790   2.382   2.877  0.4629 -0.1112 -0.2953
  138EC      O3 1380   1.691   2.315   2.917 -0.3442  0.0180 -0.3834
  139EC      C1 1381   4.007   2.255   1.018 -0.1497 -0.4798  1.0773
  139EC      C2 1382   4.056   2.306   1.160 -0.0006 -0.1548 -0.7297
  139EC      O1 1383   3.996   2.381   0.934  0.8140 -0.1505  0.6952
  139EC      H1 1384   3.919   2.192   1.026  0.1045 -0.7613  1.8274
  139EC      H2 1385   4.078   2.188   0.969  0.7457 -0.6372  2.4984
  139EC      O2 1386   4.023   2.458   1.146 -0.0415 -0.0023  0.5077
  139EC      H3 1387   4.163   2.295   1.150  0.0964  0.0697 -0.0522
  139EC      H4 1388   4.002   2.266   1.246  0.4643 -0.9319 -0.7913
  139EC      C3 1389   3.997   2.508   1.013 -0.2006 -0.3215 -0.2282
  139EC      O3 1390   3.995   2.627   0.975 -0.4603  0.5279 -0.2929
  140EC      C1 1391   3.069   2.006   2.887 -0.2303 -0.7517  0.5297
  140EC      C2 1392   3.101   1.848   2.873 -0.2068 -0.0161 -0.0901
  140EC      O1 1393   2.984   2.013   3.008  0.1916 -0.1238  0.7212
  140EC      H1 1394   3.027   2.043   2.793  2.1009 -1.7537 -1.0006
  140EC      H2 1395   3.167   2.053   2.899  0.1239 -1.7746  1.8497
  140EC      O2 1396   3.030   1.783   2.991 -0.0330 -0.2789 -1.2515
  140EC      H3 1397   3.209   1.834   2.875 -0.1739 -0.2145 -1.9224
  140EC      H4 1398   3.065   1.809   2.778  0.5607  0.3992 -0.5613
  140EC      C3 1399   2.934   1.883   3.062 -0.0036 -0.2201 -0.3558
  140EC      O3 1400   2.888   1.870   3.177  0.1923 -0.2670 -0.4005
  141EC      C1 1401   2.042   2.451   3.935  0.3910  0.9299 -0.6065
  141EC      C2 1402   1.889   2.450   3.936  1.3115  0.6044  0.9211
  141EC      O1 1403   2.079   2.582   3.996  0.3235  0.2212 -0.8213
  141EC      H1 1404   2.078   2.443   3.833  2.4702  0.6568  0.0781
  141EC      H2 1405   2.081   2.362   3.985 -0.1045 -0.0680 -1.9427
  141EC      O2 1406   1.850   2.588   3.971  0.2853  0.2387 -1.1781
  141EC      H3 1407   1.859   2.385   4.018 -1.5113 -1.4181 -1.4951
  141EC      H4 1408   1.855   2.421   3.836 -0.5083  1.2379  1.3113
  141EC      C3 1409   1.966   2.684   3.998  0.4732 -0.4752  0.4614
  141EC      O3 1410   1.957   2.778   4.078  0.4337  0.3147 -0.0298
  142EC      C1 1411   3.479   1.552   3.543  0.2166  0.6322  0.3969
  142EC      C2 1412   3.506   1.477   3.404 -0.5518  0.4156 -0.7522
  142EC      O1 1413   3.576   1.663   3.548 -1.0241  0.1263 -0.3054
  142EC      H1 1414   3.491   1.489   3.631  1.8779 -2.1640 -1.6863
  142EC      H2 1415   3.374   1.583   3.534 -0.1788 -0.9404 -0.7463
  142EC      O2 1416   3.606   1.568   3.340 -0.0060 -0.5230 -0.7233
  142EC      H3 1417   3.414   1.461   3.349 -1.4619  1.4500  0.4287
  142EC      H4 1418   3.550   1.380   3.429 -0.8027  0.0124 -1.8179
  142EC      C3 1419   3.670   1.670   3.429  0.6895 -0.4382 -0.5411
  142EC      O3 1420   3.727   1.774   3.385 -0.5959 -0.2099 -0.0508
  143EC      C1 1421   2.147   1.470   3.438 -0.5581 -0.3879 -0.6568
  143EC      C2 1422   2.157   1.330   3.358  0.6554 -0.3341 -0.2049
  143EC      O1 1423   2.103   1.569   3.333 -0.5219  0.7881  0.2543
  143EC      H1 1424   2.241   1.507   3.477  0.8883 -4.0096 -0.3230
  143EC      H2 1425   2.081   1.465   3.526 -0.4611  3.0098 -0.2482
  143EC      O2 1426   2.149   1.369   3.214  0.3753  0.3275 -0.0142
  143EC      H3 1427   2.075   1.268   3.395 -1.2180  1.8394 -0.5577
  143EC      H4 1428   2.245   1.267   3.374  0.5820  0.1459  2.5520
  143EC      C3 1429   2.123   1.518   3.189  0.6320  0.5655  1.1274
  143EC      O3 1430   2.082   1.577   3.093  0.1879 -0.2162 -0.0256
  144EC      C1 1431   0.685   3.353   2.276  0.5442 -0.5602  0.3845
  144EC      C2 1432   0.760   3.478   2.346 -0.3316  0.4888 -0.5123
  144EC      O1 1433   0.618   3.282   2.388  0.1390 -0.4077  0.1305
  144EC      H1 1434   0.765   3.302   2.220  0.1499  1.1810 -1.9001
  144EC      H2 1435   0.610   3.389   2.207  2.0127 -0.8764 -1.4708
  144EC      O2 1436   0.724   3.467   2.490 -0.0031  0.6245 -0.9446
  144EC      H3 1437   0.719   3.573   2.313 -0.9191  1.0598  1.6831
  144EC      H4 1438   0.868   3.477   2.332 -0.5002 -0.7590 -2.0007
  144EC      C3 1439   0.628   3.356   2.527 -0.5931  0.5966  0.4359
  144EC      O3 1440   0.619   3.311   2.644  0.0514 -0.1944  0.4177
  145EC      C1 1441   4.237   1.228   3.245  0.7456 -0.4527  0.2758
  145EC      C2 1442   4.319   1.366   3.251 -0.6049 -0.5294 -0.1416
  145EC      O1 1443   4.110   1.262   3.328 -0.2775  0.0972  0.4128
  145EC      H1 1444   4.299   1.145   3.280 -0.8682 -0.8662  2.3638
  145EC      H2 1445   4.209   1.209   3.141  0.8234  1.8818 -0.2195
  145EC      O2 1446   4.233   1.465   3.321  0.5864  0.2286 -0.8186
  145EC      H3 1447   4.348   1.405   3.154  0.1050  1.1496  0.6983
  145EC      H4 1448   4.401   1.352   3.322  0.3914  0.3051 -1.1035
  145EC      C3 1449   4.104   1.402   3.378  0.2206  0.0469  0.1417
  145EC      O3 1450   3.995   1.464   3.396 -0.1785 -0.0742 -0.1085
  146EC      C1 1451   0.002   3.064   0.537  0.4923  0.0642 -0.2600
  146EC      C2 1452   0.132   3.138   0.473  0.1427  0.3167 -0.1676
  146EC      O1 1453   0.021   2.922   0.510 -0.4614  0.8687 -0.6028
  146EC      H1 1454   4.428   3.102   0.480  2.1120  1.3075 -1.9476
  146EC      H2 1455   4.504   3.099   0.640  0.0271  1.0525 -0.6250
  146EC      O2 1456   0.206   3.022   0.420 -0.2358  1.0021  0.4018
  146EC      H3 1457   0.187   3.175   0.559 -0.6652  0.1586  0.4196
  146EC      H4 1458   0.108   3.213   0.397  1.5250 -0.2273 -1.2020
  146EC      C3 1459   0.149   2.888   0.445 -0.2308  0.3577  0.2724
  146EC      O3 1460   0.168   2.780   0.387 -0.1635  0.2429 -0.2340
  147EC      C1 1461   3.698   2.192   0.731 -0.0982  0.4920 -0.3657
  147EC      C2 1462   3.740   2.242   0.583  0.7056 -1.0318  0.5465
  147EC      O1 1463   3.682   2.038   0.714  0.1965  0.3969 -0.1765
  147EC      H1 1464   3.616   2.244   0.781  0.8157  1.4992  0.1314
  147EC      H2 1465   3.790   2.201   0.789 -0.9275 -0.8835  1.2447
  147EC      O2 1466   3.750   2.117   0.502 -0.3485 -0.8712  0.2452
  147EC      H3 1467   3.833   2.298   0.578 -0.4103  0.9597  0.6121
  147EC      H4 1468   3.657   2.305   0.551  1.0236 -0.8255  0.1274
  147EC      C3 1469   3.697   1.994   0.573 -0.7445 -0.1353  0.5106
  147EC      O3 1470   3.737   1.884   0.536  0.3517  0.4273 -0.3583
  148EC      C1 1471   3.037   3.904   0.952  0.2956 -0.3766 -0.9956
  148EC      C2 1472   3.030   3.817   0.821 -0.1074  0.2173 -0.4177
  148EC      O1 1473   2.910   3.865   1.027  0.0079  0.4398  0.7813
  148EC      H1 1474   3.053   4.009   0.931 -0.5322 -0.3212 -1.4057
  148EC      H2 1475   3.121   3.877   1.017 -1.1897 -1.4320  0.5985
  148EC      O2 1476   2.903   3.741   0.836 -0.0088 -0.7393  0.0370
  148EC      H3 1477   3.122   3.762   0.802  0.7025  0.8851  1.3543
  148EC      H4 1478   3.009   3.880   0.734  0.0935  1.0892  0.1566
  148EC      C3 1479   2.821   3.763   0.954 -0.1877  0.1395 -0.3053
  148EC      O3 1480   2.717   3.706   0.991  0.3865 -0.3268  0.6804
  149EC      C1 1481   2.299   3.147   0.677 -0.5741  0.2406  0.0507
  149EC      C2 1482   2.179   3.083   0.589 -0.2790  0.6698 -0.1991
  149EC      O1 1483   2.390   3.025   0.708  0.3117 -0.6001 -0.0518
  149EC      H1 1484   2.271   3.197   0.769 -1.8439  1.7337 -1.0940
  149EC      H2 1485   2.352   3.217   0.612 -3.2020  0.3443 -2.2080
  149EC      O2 1486   2.198   2.933   0.605 -0.2142  0.8364  0.1408
  149EC      H3 1487   2.195   3.112   0.485  1.9885  0.8518  0.1293
  149EC      H4 1488   2.078   3.108   0.620 -0.3063  0.9154 -0.4822
  149EC      C3 1489   2.320   2.898   0.688  0.0126  0.0014 -0.1801
  149EC      O3 1490   2.376   2.788   0.688 -0.0777 -0.3133  0.1457
  150EMC     C1 1491   2.309   0.945   1.905  0.1279 -0.6437  0.1477
  150EMC     C2 1492   2.607   0.732   1.920  0.1609 -0.2657 -0.0062
  150EMC     C3 1493   2.413   0.759   1.798  0.0245 -0.1801 -0.1246
  150EMC     O1 1494   2.334   0.807   1.895 -0.1007  0.3602 -0.5046
  150EMC     O2 1495   2.471   0.717   1.907  0.6228 -0.2925  0.0666
  150EMC     O3 1496   2.463   0.831   1.714 -0.3415 -0.0917 -0.1372
  150EMC     H1 1497   2.302   0.999   1.811 -2.2314  0.1186  0.7128
  150EMC     H2 1498   2.398   0.980   1.957 -2.2391  2.0096  2.7516
  150EMC     H3 1499   2.228   0.972   1.973 -0.5146  1.0190 -1.2212
  150EMC     C4 1500   2.682   0.637   2.008  0.6101 -0.8638  0.0468
  150EMC     H4 1501   2.628   0.828   1.967  2.8817 -0.6986 -0.1823
  150EMC     H5 1502   2.654   0.743   1.822  0.5766 -0.6397  0.1527
  150EMC     H6 1503   2.663   0.647   2.115  1.5132  1.7192  0.0329
  150EMC     H7 1504   2.790   0.651   2.004  0.7494  0.0055  3.4502
  150EMC     H8 1505   2.649   0.541   1.967 -1.2256 -0.4455  0.4193
  151EMC     C1 1506   0.876   1.774   0.321 -0.2437  0.2818 -0.4787
  151EMC     C2 1507   0.509   1.960   0.562  0.4036  0.0903 -0.1423
  151EMC     C3 1508   0.674   1.875   0.404  0.6503  0.3322 -0.3819
  151EMC     O1 1509   0.767   1.783   0.415  0.4829  0.3740  0.1096
  151EMC     O2 1510   0.596   1.858   0.518 -0.2867 -0.0936 -0.6187
  151EMC     O3 1511   0.684   1.980   0.340  0.0283 -0.0934  0.0869
  151EMC     H1 1512   0.844   1.707   0.240 -0.5778  0.3627 -0.4181
  151EMC     H2 1513   0.964   1.731   0.368 -1.7701 -0.5429  1.8340
  151EMC     H3 1514   0.902   1.874   0.288 -1.1054  0.9218  0.6872
  151EMC     C4 1515   0.516   1.964   0.714 -0.1228  0.0804 -0.8786
  151EMC     H4 1516   0.409   1.950   0.519 -0.1068  0.7837  0.8482
  151EMC     H5 1517   0.563   2.048   0.528  0.3180 -0.2248 -1.1450
  151EMC     H6 1518   0.615   1.980   0.757 -1.7253  0.6401  2.9208
  151EMC     H7 1519   0.471   1.877   0.763  1.5503  0.0050  0.6182
  151EMC     H8 1520   0.455   2.046   0.751  0.8109  0.7981 -0.8820
  152EMC     C1 1521   3.405   4.082   3.973 -0.7673 -0.4221  0.2570
  152EMC     C2 1522   3.492   4.109   3.551 -0.2831 -0.2083 -0.3011
  152EMC     C3 1523   3.482   3.998   3.770 -0.5473 -0.4234 -0.3067
  152EMC     O1 1524   3.389   4.055   3.837  0.6960  0.1853  0.5653
  152EMC     O2 1525   3.418   4.049   3.661  0.2649 -0.0849 -0.1400
  152EMC     O3 1526   3.602   4.014   3.794 -0.1305 -0.3492 -0.5827
  152EMC     H1 1527   3.509   4.064   4.001 -0.5761  0.9274  0.4790
  152EMC     H2 1528   3.344   4.013   4.031 -0.8312  1.2401  2.2402
  152EMC     H3 1529   3.371   4.179   4.008  0.6373  0.5233 -0.8647
  152EMC     C4 1530   3.395   4.158   3.441 -0.2770 -0.1439  0.6358
  152EMC     H4 1531   3.563   4.032   3.520  2.1646  1.7759  0.0375
  152EMC     H5 1532   3.547   4.198   3.582 -1.0719  0.0756  0.2992
  152EMC     H6 1533   3.338   4.072   3.406 -0.0869  0.4708 -1.2630
  152EMC     H7 1534   3.451   4.202   3.359 -1.9305 -0.0183 -0.4856
  152EMC     H8 1535   3.320   4.228   3.481  0.6310  0.6735  0.9465
  153EMC     C1 1536   3.675   4.156   0.840  0.0712 -0.8624 -0.2954
  153EMC     C2 1537   3.702   0.032   0.835  0.7130 -0.0292 -0.1226
  153EMC     C3 1538   3.555   4.360   0.885  0.3342  0.1121  0.5423
  153EMC     O1 1539   3.648   4.275   0.917 -0.0280 -0.5356  0.3627
  153EMC     O2 1540   3.665   4.431   0.921  0.5563  0.6501 -0.6335
  153EMC     O3 1541   3.502   4.374   0.775 -0.5335  0.3901 -0.4228
  153EMC     H1 1542   3.578   4.105   0.832 -0.1376 -0.4573 -0.3340
  153EMC     H2 1543   3.750   4.095   0.891  1.2430  0.4478 -0.3931
  153EMC     H3 1544   3.724   4.190   0.749 -0.4331  1.2948  0.1921
  153EMC     C4 1545   3.835   0.102   0.868  0.2210  0.9541 -0.1615
  153EMC     H4 1546   3.622   0.105   0.848  1.2878  0.4040  1.2235
  153EMC     H5 1547   3.713   4.495   0.738  3.2157 -1.7210  0.8813
  153EMC     H6 1548   3.854   0.193   0.811 -1.0604  0.9538 -0.6286
  153EMC     H7 1549   3.920   0.039   0.841  0.4300  1.0655  0.2341
  153EMC     H8 1550   3.842   0.129   0.973  0.5318 -3.9935  1.3635
  154EMC     C1 1551   3.703   3.354   1.758 -0.1122  0.0741  0.0427
  154EMC     C2 1552   3.684   3.689   2.012 -0.4628  0.3747  0.5595
  154EMC     C3 1553   3.813   3.512   1.889  0.1744  0.5996 -0.6309
  154EMC     O1 1554   3.757   3.480   1.779 -0.5934 -0.2372  0.7436
  154EMC     O2 1555   3.770   3.641   1.902  0.4611  0.0767  0.4512
  154EMC     O3 1556   3.832   3.426   1.985  0.0440  0.6586  0.3899
  154EMC     H1 1557   3.692   3.330   1.652 -2.5104  0.3208  0.1930
  154EMC     H2 1558   3.605   3.338   1.804 -0.2939  0.3546 -0.2438
  154EMC     H3 1559   3.770   3.277   1.797  0.2159 -1.2264 -2.8080
  154EMC     C4 1560   3.759   3.763   2.124 -0.6191 -0.3880 -0.1885
  154EMC     H4 1561   3.631   3.602   2.052  2.3721 -1.7998 -0.1366
  154EMC     H5 1562   3.600   3.741   1.967 -0.8031 -1.0313 -0.4984
  154EMC     H6 1563   3.698   3.798   2.207  1.0321  0.7882  0.5891
  154EMC     H7 1564   3.817   3.848   2.088  0.6669  0.2340  2.9944
  154EMC     H8 1565   3.833   3.694   2.165  2.9808  0.5135 -4.3996
  155EMC     C1 1566   0.415   2.132   3.281 -0.1691 -0.4982  0.2117
  155EMC     C2 1567   0.211   2.308   3.597  0.4939 -0.0168  0.3551
  155EMC     C3 1568   0.405   2.312   3.452 -0.7040  0.3295 -0.2234
  155EMC     O1 1569   0.347   2.210   3.374  0.3804  0.6868  0.8396
  155EMC     O2 1570   0.348   2.322   3.572 -0.0243 -0.0346  0.2207
  155EMC     O3 1571   0.521   2.337   3.438 -0.1156  0.7231  0.1465
  155EMC     H1 1572   0.463   2.053   3.339 -0.1223  0.5963  1.7166
  155EMC     H2 1573   0.483   2.192   3.221 -0.1049 -1.1451 -0.3767
  155EMC     H3 1574   0.349   2.084   3.209 -2.0961  1.0204  0.8847
  155EMC     C4 1575   0.180   2.385   3.718 -0.5115 -0.5487 -0.0623
  155EMC     H4 1576   0.197   2.201   3.611 -0.0705 -0.0062 -0.1133
  155EMC     H5 1577   0.147   2.328   3.511 -1.6974 -0.4040  1.8224
  155EMC     H6 1578   0.093   2.449   3.702  0.2655  0.5442 -0.0041
  155EMC     H7 1579   0.248   2.465   3.748 -1.2177  0.2611 -0.5708
  155EMC     H8 1580   0.162   2.322   3.805  0.2835  2.1051  2.1707
  156EMC     C1 1581   1.428   2.337   0.029 -0.4859  0.2762 -0.1405
  156EMC     C2 1582   1.282   2.196   4.228  0.0522  0.5166 -0.0995
  156EMC     C3 1583   1.496   2.223   4.331 -1.0249 -0.4345 -0.0532
  156EMC     O1 1584   1.461   2.340   4.401  0.1604 -0.2915  0.0897
  156EMC     O2 1585   1.403   2.262   4.236  0.4942 -0.1514  0.3048
  156EMC     O3 1586   1.501   2.111   4.378 -0.1599 -0.5957  0.2726
  156EMC     H1 1587   1.381   2.434   0.046  0.1594  0.9033 -1.7081
  156EMC     H2 1588   1.528   2.334   0.072 -0.2886 -1.5524 -0.6214
  156EMC     H3 1589   1.371   2.252   0.065 -0.9815  0.8464  0.4437
  156EMC     C4 1590   1.208   2.237   4.100 -0.2545 -0.7511 -0.5411
  156EMC     H4 1591   1.209   2.225   4.304  2.1555  1.1729  1.8011
  156EMC     H5 1592   1.295   2.088   4.230  1.7471  0.6982  0.6142
  156EMC     H6 1593   1.111   2.187   4.108 -1.5769  1.8019  0.5422
  156EMC     H7 1594   1.264   2.197   4.015  1.1167  2.0322 -1.0662
  156EMC     H8 1595   1.186   2.343   4.094  0.2545 -0.7018 -1.8476
  157EMC     C1 1596   3.006   2.525   1.098 -0.5844  0.2695 -0.0677
  157EMC     C2 1597   3.275   2.739   1.409  0.2870 -0.7633 -0.0625
  157EMC     C3 1598   3.109   2.675   1.249  0.4712  0.0580  0.2122
  157EMC     O1 1599   3.102   2.555   1.200 -0.3955 -0.0770 -0.4262
  157EMC     O2 1600   3.181   2.648   1.358 -0.7181  0.3959  0.0841
  157EMC     O3 1601   3.113   2.771   1.168  0.3686  0.5926  0.3860
  157EMC     H1 1602   3.018   2.422   1.065 -1.4666 -0.0734  0.6498
  157EMC     H2 1603   3.032   2.587   1.012 -0.7183  0.1212 -0.2172
  157EMC     H3 1604   2.905   2.552   1.127  0.4591  3.3814  1.0315
  157EMC     C4 1605   3.374   2.645   1.485 -0.6654 -0.1236  0.4465
  157EMC     H4 1606   3.220   2.810   1.471  0.3379 -0.4450 -0.3751
  157EMC     H5 1607   3.325   2.790   1.327  0.8684 -1.2733 -0.0266
  157EMC     H6 1608   3.329   2.601   1.574 -2.6717 -1.0844 -0.9781
  157EMC     H7 1609   3.473   2.682   1.512  0.5164 -1.9563 -1.1996
  157EMC     H8 1610   3.400   2.558   1.426 -0.2577 -0.2439  0.8031
  158EMC     C1 1611   3.780   3.929   0.530  0.1662  0.3887  0.2868
  158EMC     C2 1612   4.077   4.161   0.658  0.0152 -0.4292  0.3373
  158EMC     C3 1613   3.959   3.955   0.680  0.3658 -0.0475  0.1789
  158EMC     O1 1614   3.843   4.002   0.632 -0.5534  0.2483  0.1737
  158EMC     O2 1615   3.962   4.089   0.691  1.1210 -0.0603 -0.4789
  158EMC     O3 1616   4.047   3.885   0.621  0.6809 -0.0558 -0.5364
  158EMC     H1 1617   3.673   3.947   0.535 -0.0146 -0.8432  2.3542
  158EMC     H2 1618   3.800   3.823   0.547 -2.1965  0.2534  2.8619
  158EMC     H3 1619   3.833   3.953   0.438 -1.2606  2.1001 -0.1177
  158EMC     C4 1620   4.060   4.316   0.668  0.2652 -0.0457  0.2658
  158EMC     H4 1621   4.112   4.133   0.559 -0.1390 -1.1951  0.4941
  158EMC     H5 1622   4.158   4.123   0.719 -0.3315  0.9396  1.6943
  158EMC     H6 1623   4.153   4.367   0.643  0.6946  0.7923  3.1755
  158EMC     H7 1624   4.036   4.340   0.771  1.9056 -4.0975  1.8129
  158EMC     H8 1625   3.985   4.368   0.608  1.3063  0.9458 -0.2039
  159EMC     C1 1626   0.059   2.530   0.946  0.4848  0.0612  0.5728
  159EMC     C2 1627   4.241   2.404   0.751  0.2756  0.7851  0.1041
  159EMC     C3 1628   4.382   2.581   0.805 -0.1860 -0.1635 -0.5079
  159EMC     O1 1629   4.502   2.526   0.818  0.0569 -0.1515 -0.6746
  159EMC     O2 1630   4.365   2.464   0.741 -0.0717  0.2826  0.0166
  159EMC     O3 1631   4.317   2.622   0.898 -0.4971  0.6091 -0.0866
  159EMC     H1 1632   4.508   2.523   1.035  0.1622 -1.8972  0.2205
  159EMC     H2 1633   0.108   2.628   0.956 -0.5086  0.8062 -1.2446
  159EMC     H3 1634   0.136   2.453   0.943  2.5469  2.0017 -2.2872
  159EMC     C4 1635   4.223   2.296   0.639 -0.0911  0.7493 -0.3353
  159EMC     H4 1636   4.166   2.482   0.749  0.2827  0.7758 -0.8674
  159EMC     H5 1637   4.227   2.355   0.847 -0.0439 -2.1830 -1.3284
  159EMC     H6 1638   4.241   2.346   0.544 -1.9726  0.8513 -0.6774
  159EMC     H7 1639   4.118   2.269   0.630 -0.4033  0.6279  2.5844
  159EMC     H8 1640   4.293   2.214   0.652 -0.2323  0.8452  1.2804
  160EMC     C1 1641   4.490   0.190   2.508 -0.8329 -0.4587 -0.5074
  160EMC     C2 1642   0.175   0.280   2.819 -0.2476  0.2491 -0.3487
  160EMC     C3 1643   0.092   0.378   2.610  0.1615 -0.0847  0.6809
  160EMC     O1 1644   0.095   0.276   2.520  0.9495 -0.7382  0.2456
  160EMC     O2 1645   0.191   0.321   2.683  0.1435 -0.9984  0.7272
  160EMC     O3 1646   4.507   0.423   2.671  0.0799 -0.2773  0.8261
  160EMC     H1 1647   4.404   0.249   2.475 -0.3811 -0.0178 -0.9299
  160EMC     H2 1648   4.463   0.159   2.609  0.4009 -0.0254 -0.0188
  160EMC     H3 1649   0.001   0.104   2.445 -0.7364  0.1127 -1.2805
  160EMC     C4 1650   0.315   0.218   2.853 -0.4204  0.1837  0.0210
  160EMC     H4 1651   0.091   0.216   2.847 -0.3731  0.8858  0.7817
  160EMC     H5 1652   0.159   0.367   2.882 -4.6307  1.3741 -2.6279
  160EMC     H6 1653   0.301   0.129   2.915  0.1450  0.2339  0.2321
  160EMC     H7 1654   0.386   0.287   2.899  1.9391 -1.2571 -1.2236
  160EMC     H8 1655   0.372   0.181   2.767  0.2771 -2.0673  1.3556
  161EMC     C1 1656   1.095   0.878   0.690  0.7729  0.0957 -0.3573
  161EMC     C2 1657   0.794   0.872   1.061  0.5247  0.4676 -0.6600
  161EMC     C3 1658   0.950   0.893   0.890 -0.2606 -0.4279  0.5635
  161EMC     O1 1659   0.967   0.866   0.756  0.9262  0.5797 -0.1576
  161EMC     O2 1660   0.842   0.844   0.932 -0.4876  0.4663  0.0449
  161EMC     O3 1661   1.024   0.978   0.947 -0.1866  0.2922 -0.0287
  161EMC     H1 1662   1.141   0.977   0.699 -1.1695  1.3425 -2.9024
  161EMC     H2 1663   1.098   0.826   0.595 -2.6998 -2.3642  0.6733
  161EMC     H3 1664   1.154   0.811   0.752  1.3489  0.8015 -0.1242
  161EMC     C4 1665   0.691   0.761   1.093 -0.1461 -0.1977 -0.0247
  161EMC     H4 1666   0.734   0.963   1.055 -0.9392 -0.3027  1.2378
  161EMC     H5 1667   0.867   0.889   1.140  0.3855 -4.2350  0.8152
  161EMC     H6 1668   0.611   0.758   1.019  1.8343 -0.6997 -2.2683
  161EMC     H7 1669   0.646   0.782   1.190 -2.7204 -0.3523 -1.1049
  161EMC     H8 1670   0.751   0.671   1.098  1.9721  1.2098  1.8520
  162EMC     C1 1671   1.943   1.402   1.084 -0.0354 -0.0829 -0.2802
  162EMC     C2 1672   1.658   1.121   0.861  0.4031  0.2696  0.4682
  162EMC     C3 1673   1.819   1.223   1.002  0.0966  0.1626  0.9953
  162EMC     O1 1674   1.815   1.350   1.043  0.2629  0.2629 -0.4957
  162EMC     O2 1675   1.691   1.215   0.963 -0.0156  0.4738 -0.0525
  162EMC     O3 1676   1.911   1.180   0.935  0.1369  0.4845 -0.4552
  162EMC     H1 1677   2.009   1.330   1.132  1.4429  1.2972 -0.1348
  162EMC     H2 1678   1.930   1.474   1.165  3.2544 -0.4347  0.7059
  162EMC     H3 1679   1.996   1.441   0.996 -1.1502  0.7863 -0.5879
  162EMC     C4 1680   1.506   1.100   0.856 -0.7780 -0.0522  0.1175
  162EMC     H4 1681   1.709   1.028   0.888 -1.9389 -0.8567  1.2861
  162EMC     H5 1682   1.684   1.163   0.764 -1.3922 -3.2782 -1.7290
  162EMC     H6 1683   1.463   1.066   0.950 -0.2449  0.9126  0.7194
  162EMC     H7 1684   1.475   1.024   0.785 -0.2633 -0.7144  0.5884
  162EMC     H8 1685   1.450   1.186   0.821 -0.6539 -0.8513 -2.2581
  163EMC     C1 1686   3.139   0.007   3.137  0.1973  0.1125  1.0339
  163EMC     C2 1687   3.484   4.404   3.112 -0.3714 -1.0161  0.5160
  163EMC     C3 1688   3.261   4.331   3.051  0.2397  0.0717 -0.1942
  163EMC     O1 1689   3.202   4.445   3.030  0.1534 -0.3839  0.7270
  163EMC     O2 1690   3.370   4.400   3.017  0.1116 -0.8521  0.5166
  163EMC     O3 1691   3.249   4.269   3.150 -0.4040 -0.0852 -0.5128
  163EMC     H1 1692   3.148   4.467   3.233 -1.3114  0.4752  1.3897
  163EMC     H2 1693   3.032   0.005   3.116 -0.4741 -0.8410  4.0819
  163EMC     H3 1694   3.181   0.107   3.138  1.5227 -0.4243  0.6510
  163EMC     C4 1695   3.608   4.475   3.051  0.0744  0.3562  0.4264
  163EMC     H4 1696   3.524   4.306   3.140  1.4165 -0.7754 -1.0062
  163EMC     H5 1697   3.456   4.449   3.207 -2.4269 -0.0620 -0.4650
  163EMC     H6 1698   3.643   4.412   2.969 -0.5638  0.4221  0.0943
  163EMC     H7 1699   3.685   4.472   3.128 -1.1238 -0.7346  1.6579
  163EMC     H8 1700   3.581   0.065   3.020 -0.0496 -0.2849 -1.6988
  164EMC     C1 1701   1.460   2.641   2.918 -0.0526  0.0217  0.8689
  164EMC     C2 1702   1.588   2.500   3.259  0.2822 -0.3944  0.1795
  164EMC     C3 1703   1.404   2.573   3.133  0.0130  0.6707  0.4603
  164EMC     O1 1704   1.471   2.541   3.020  0.1562  0.3444  0.4901
  164EMC     O2 1705   1.487   2.471   3.164  0.0047 -0.2503 -0.7543
  164EMC     O3 1706   1.398   2.684   3.192  0.2946  0.3578  0.7355
  164EMC     H1 1707   1.501   2.595   2.828  0.0911 -0.1680  1.0320
  164EMC     H2 1708   1.526   2.723   2.948  0.4378  0.4860 -1.2634
  164EMC     H3 1709   1.357   2.669   2.897  0.6229  1.5865 -0.5738
  164EMC     C4 1710   1.647   2.374   3.317  0.2847  0.7673  0.1127
  164EMC     H4 1711   1.548   2.554   3.344 -0.1433 -0.7437  0.2056
  164EMC     H5 1712   1.666   2.560   3.212 -0.7740  2.7912  2.2351
  164EMC     H6 1713   1.734   2.398   3.378 -0.3592  2.9990  0.2610
  164EMC     H7 1714   1.668   2.308   3.233 -2.3182  1.5798 -1.2743
  164EMC     H8 1715   1.576   2.324   3.383  0.6087  2.0747  1.5072
  165EMC     C1 1716   3.693   3.188   2.484 -0.0221  0.7649  0.1220
  165EMC     C2 1717   3.658   3.566   2.433 -0.5572 -0.1025 -0.0774
  165EMC     C3 1718   3.817   3.398   2.511 -0.1582 -0.4149  0.2052
  165EMC     O1 1719   3.732   3.301   2.564  0.1824  0.0583 -0.3392
  165EMC     O2 1720   3.697   3.467   2.530 -0.5319  0.5118 -0.3220
  165EMC     O3 1721   3.870   3.392   2.397  0.6899  0.1786 -0.0597
  165EMC     H1 1722   3.757   3.103   2.507  1.2921  1.4367 -0.9530
  165EMC     H2 1723   3.706   3.209   2.378 -1.1567  1.6511  0.1287
  165EMC     H3 1724   3.587   3.163   2.476  0.4959 -1.3137 -0.8048
  165EMC     C4 1725   3.571   3.664   2.503  0.2913 -0.1355  0.4031
  165EMC     H4 1726   3.607   3.532   2.343  0.3684  0.6203 -0.9024
  165EMC     H5 1727   3.746   3.621   2.399  0.1080 -0.9673  0.1958
  165EMC     H6 1728   3.516   3.727   2.434 -2.0643  0.9046  3.0607
  165EMC     H7 1729   3.622   3.731   2.572  2.7055 -0.4167 -0.9820
  165EMC     H8 1730   3.494   3.597   2.540 -1.7032  0.4997 -2.2834
  166EMC     C1 1731   3.076   2.577   2.552  0.0162 -0.7637 -0.1417
  166EMC     C2 1732   3.488   2.708   2.596  0.6504  0.4786 -0.6015
  166EMC     C3 1733   3.304   2.615   2.482  0.7845  0.0819 -0.0393
  166EMC     O1 1734   3.205   2.640   2.565 -0.0168 -0.2407  0.0106
  166EMC     O2 1735   3.354   2.680   2.589 -0.1587 -0.1370 -0.2923
  166EMC     O3 1736   3.329   2.501   2.440  0.1318  0.1063 -0.5504
  166EMC     H1 1737   3.076   2.483   2.498  0.1022 -1.5201  1.1368
  166EMC     H2 1738   3.006   2.653   2.518  0.4581  0.0839  0.7720
  166EMC     H3 1739   3.043   2.560   2.655 -0.6208 -0.5631 -0.3143
  166EMC     C4 1740   3.515   2.834   2.675 -0.2750  0.4637 -0.7375
  166EMC     H4 1741   3.541   2.708   2.501  1.9124  0.3758  0.0818
  166EMC     H5 1742   3.542   2.624   2.640  2.6392  1.8602 -0.2423
  166EMC     H6 1743   3.511   2.820   2.783  1.1293 -0.2648 -0.7587
  166EMC     H7 1744   3.451   2.914   2.636  0.3396  1.2046 -0.2532
  166EMC     H8 1745   3.612   2.882   2.667  0.3173 -0.3495  0.9614
  167EMC     C1 1746   0.796   0.737   2.160 -0.0043 -0.3299 -0.4892
  167EMC     C2 1747   0.491   0.629   2.377 -0.7602 -1.4587 -0.1501
  167EMC     C3 1748   0.654   0.801   2.343 -0.0414  0.1908  0.4999
  167EMC     O1 1749   0.668   0.787   2.209 -0.5807  0.1034 -0.4107
  167EMC     O2 1750   0.547   0.742   2.307  0.1174  0.3517  0.3397
  167EMC     O3 1751   0.734   0.744   2.427  0.3571  0.0864 -0.2595
  167EMC     H1 1752   0.774   0.681   2.069 -3.9873  3.9271 -2.5428
  167EMC     H2 1753   0.837   0.665   2.231 -0.2808 -1.3893 -1.3801
  167EMC     H3 1754   0.877   0.806   2.135  1.1094 -1.4259 -0.0642
  167EMC     C4 1755   0.344   0.642   2.398  0.0382  0.3424 -0.0067
  167EMC     H4 1756   0.551   0.609   2.466 -2.2023 -0.3678  1.1331
  167EMC     H5 1757   0.530   0.542   2.324  1.8894 -0.4773  0.0114
  167EMC     H6 1758   0.325   0.715   2.477  0.1866  2.3603 -1.7613
  167EMC     H7 1759   0.296   0.548   2.423  1.9005 -0.6397  0.0949
  167EMC     H8 1760   0.287   0.681   2.315 -1.3013  1.2469  1.2886
  168EMC     C1 1761   1.808   4.390   0.877 -0.4326 -0.0453 -0.4098
  168EMC     C2 1762   1.932   0.090   0.560  0.2850 -0.2552 -0.5776
  168EMC     C3 1763   1.996   4.506   0.769  1.0483  0.9768  0.6351
  168EMC     O1 1764   1.924   4.473   0.878  0.0021  0.0256  0.4369
  168EMC     O2 1765   1.908   0.005   0.666 -0.6758 -0.4959 -1.1188
  168EMC     O3 1766   2.096   0.059   0.782  0.0837 -0.5831 -0.1808
  168EMC     H1 1767   1.844   4.293   0.911  3.1227  1.6684  1.2925
  168EMC     H2 1768   1.760   4.381   0.779  3.1528 -1.8808 -2.2258
  168EMC     H3 1769   1.724   4.426   0.937 -1.0865 -1.6890 -0.2745
  168EMC     C4 1770   1.824   0.074   0.445 -0.2424  0.0949 -0.4583
  168EMC     H4 1771   2.025   0.049   0.520  1.6031  1.7431  0.2494
  168EMC     H5 1772   1.960   0.192   0.587 -1.6552 -0.0826  0.9732
  168EMC     H6 1773   1.830   0.144   0.362  0.9409  2.1396  1.2665
  168EMC     H7 1774   1.724   0.085   0.486 -0.0416 -1.2860  0.4907
  168EMC     H8 1775   1.826   4.481   0.409 -0.6200 -0.9107  2.1252
  169EMC     C1 1776   4.290   1.031   3.575  0.4964 -0.0033 -0.1956
  169EMC     C2 1777   0.156   1.027   3.746 -0.2908  0.0906  0.3452
  169EMC     C3 1778   4.504   1.137   3.611 -0.3287 -0.4041  0.0172
  169EMC     O1 1779   4.381   1.123   3.640  0.8821 -0.6025 -0.2782
  169EMC     O2 1780   0.054   1.120   3.739 -0.1494 -0.5110 -0.1995
  169EMC     O3 1781   0.044   1.096   3.509  0.6774 -0.1396 -0.2515
  169EMC     H1 1782   4.295   0.948   3.645 -0.9960 -0.4690 -0.6192
  169EMC     H2 1783   4.310   0.986   3.478 -0.5142 -3.5104  1.0730
  169EMC     H3 1784   4.187   1.060   3.559 -0.3110 -1.4052  1.9979
  169EMC     C4 1785   0.226   1.053   3.875 -0.2308  0.4688 -0.1017
  169EMC     H4 1786   0.221   1.028   3.659 -2.3015  0.9461 -1.2258
  169EMC     H5 1787   0.104   0.931   3.749 -1.0661  0.3421 -2.5948
  169EMC     H6 1788   0.306   0.979   3.882 -0.8547 -0.1097  1.4876
  169EMC     H7 1789   0.155   1.026   3.953  2.4197 -1.1731  1.9064
  169EMC     H8 1790   0.270   1.151   3.895 -1.5071  1.0058  0.1739
  170EMC     C1 1791   2.098   2.520   1.629  0.0650  0.7606  1.2142
  170EMC     C2 1792   2.153   2.639   2.017  0.0870  0.6196 -0.8476
  170EMC     C3 1793   2.099   2.454   1.869 -0.7394 -0.3419 -0.8763
  170EMC     O1 1794   2.054   2.540   1.769  0.1342  0.5568 -0.2250
  170EMC     O2 1795   2.054   2.557   1.951  0.4440  0.1790 -0.7130
  170EMC     O3 1796   2.217   2.416   1.871  0.1197  0.0135 -0.6608
  170EMC     H1 1797   2.034   2.455   1.570 -0.5000  0.7712  1.8002
  170EMC     H2 1798   2.194   2.469   1.624 -0.5281 -0.2305 -2.1202
  170EMC     H3 1799   2.111   2.619   1.586 -2.6809  1.0746  0.9687
  170EMC     C4 1800   2.096   2.756   2.086 -0.2544  0.3354 -0.0928
  170EMC     H4 1801   2.220   2.677   1.941  1.4667 -0.8736 -0.4451
  170EMC     H5 1802   2.209   2.565   2.075  0.1538  0.0875 -1.5710
  170EMC     H6 1803   2.174   2.822   2.125  0.6377 -0.5533 -0.3278
  170EMC     H7 1804   2.041   2.724   2.175 -1.9937 -1.5885 -1.7634
  170EMC     H8 1805   2.018   2.803   2.027 -1.2268 -1.2609 -0.1541
  171EMC     C1 1806   0.373   1.780   4.390 -0.7188  0.1461 -0.2396
  171EMC     C2 1807   0.649   2.058   4.250 -0.2420  0.1292 -0.5617
  171EMC     C3 1808   0.506   1.871   4.209  0.3595  0.4606  0.1912
  171EMC     O1 1809   0.490   1.852   4.344  0.2644  0.2584  0.1274
  171EMC     O2 1810   0.519   2.005   4.231  0.0562 -0.5684 -0.6115
  171EMC     O3 1811   0.430   1.818   4.130  0.2178 -0.7729  0.5379
  171EMC     H1 1812   0.347   1.687   4.338  2.5177 -1.6232  1.0419
  171EMC     H2 1813   0.288   1.848   4.382  1.3473  3.1477  1.3405
  171EMC     H3 1814   0.378   1.758   4.496  0.7821  0.0408 -0.3132
  171EMC     C4 1815   0.666   2.179   4.165 -0.5108 -0.5162 -0.8562
  171EMC     H4 1816   0.720   1.980   4.221 -0.5724 -0.3400 -0.1436
  171EMC     H5 1817   0.660   2.063   4.359 -0.7714 -0.5119 -0.4690
  171EMC     H6 1818   0.765   2.218   4.191 -1.1751  1.4609 -1.1254
  171EMC     H7 1819   0.594   2.255   4.195  0.2295 -0.4136  0.7639
  171EMC     H8 1820   0.644   2.166   4.059 -0.1577  1.2222 -1.1772
  172EMC     C1 1821   0.668   0.771   0.187  0.2613 -0.1180 -0.4587
  172EMC     C2 1822   0.552   0.326   0.241 -0.1057  0.3011  0.3455
  172EMC     C3 1823   0.646   0.543   0.269  0.5673  0.7141 -0.7636
  172EMC     O1 1824   0.593   0.656   0.223 -0.6007 -0.1027  0.0377
  172EMC     O2 1825   0.538   0.469   0.255 -0.5191  0.1632 -0.6390
  172EMC     O3 1826   0.764   0.505   0.256 -0.7960 -0.2665 -0.6898
  172EMC     H1 1827   0.702   0.834   0.270 -3.7680 -1.1323  2.2244
  172EMC     H2 1828   0.603   0.833   0.126  0.4376  0.7907  0.2428
  172EMC     H3 1829   0.750   0.743   0.120  1.6028 -2.2942  1.9044
  172EMC     C4 1830   0.425   0.265   0.179 -0.4912  0.5674  0.5329
  172EMC     H4 1831   0.563   0.274   0.336  0.0569  1.0658  0.7531
  172EMC     H5 1832   0.638   0.318   0.174 -0.0624  4.2666 -0.3171
  172EMC     H6 1833   0.428   0.314   0.082  0.8003  0.3415  0.4436
  172EMC     H7 1834   0.326   0.280   0.222 -0.1691  0.3498  1.3813
  172EMC     H8 1835   0.436   0.161   0.149 -2.4856  1.1666 -2.6922
  173EMC     C1 1836   1.044   0.425   1.285  0.3608  0.0845 -0.2646
  173EMC     C2 1837   1.026   0.229   1.695 -0.0147  0.0430 -0.4398
  173EMC     C3 1838   1.032   0.309   1.483 -0.2634 -0.0796 -0.6939
  173EMC     O1 1839   1.067   0.413   1.424  0.3596 -1.1293 -0.2166
  173EMC     O2 1840   1.056   0.331   1.607  0.1774  0.4771  1.3855
  173EMC     O3 1841   0.991   0.205   1.430  0.3641  0.5276 -0.2385
  173EMC     H1 1842   1.043   0.528   1.250 -0.1319 -0.3027 -1.4388
  173EMC     H2 1843   0.952   0.369   1.270 -0.3011  0.7636  1.0769
  173EMC     H3 1844   1.127   0.374   1.238  0.3981 -0.8642  0.7893
  173EMC     C4 1845   1.039   0.302   1.834 -0.6577  0.8771 -0.0091
  173EMC     H4 1846   1.091   0.142   1.680  0.5166  0.6754 -1.9843
  173EMC     H5 1847   0.920   0.208   1.684 -0.2508  0.2882  1.1306
  173EMC     H6 1848   1.023   0.230   1.914 -0.8952  0.7057 -0.2077
  173EMC     H7 1849   0.981   0.392   1.857 -3.1927 -0.8768  0.9212
  173EMC     H8 1850   1.145   0.322   1.847 -1.1168  2.4432  1.6950
  174EMC     C1 1851   0.087   3.187   3.520 -0.4573  0.0174 -0.0796
  174EMC     C2 1852   0.252   3.029   3.255  0.4268 -0.1310  0.3965
  174EMC     C3 1853   0.294   3.207   3.411 -0.2984  0.6226  0.6533
  174EMC     O1 1854   0.173   3.246   3.425 -0.1483  0.7098  0.1591
  174EMC     O2 1855   0.242   3.162   3.296 -0.0768 -0.3731 -0.8144
  174EMC     O3 1856   0.358   3.133   3.487 -0.1749  0.7831 -0.2047
  174EMC     H1 1857   0.130   3.206   3.618 -0.3777  0.0229 -0.1150
  174EMC     H2 1858   0.087   3.078   3.516 -1.1669 -0.0793  1.6764
  174EMC     H3 1859   4.493   3.216   3.514 -0.7389 -0.2985  2.3911
  174EMC     C4 1860   0.158   2.993   3.136  0.4376 -1.0558 -0.3948
  174EMC     H4 1861   0.236   2.961   3.339 -2.6340 -0.6767 -0.4930
  174EMC     H5 1862   0.350   2.987   3.231  0.5985 -2.0813  3.7774
  174EMC     H6 1863   0.196   2.905   3.084  1.5579 -1.5055  1.1388
  174EMC     H7 1864   0.158   3.077   3.066  0.4134 -0.6045  0.1389
  174EMC     H8 1865   0.056   2.980   3.173 -0.8051 -2.3750 -3.8670
  175EMC     C1 1866   0.340   3.902   0.304  0.2843 -0.3658 -0.1999
  175EMC     C2 1867   0.353   3.653   4.440 -0.0953  0.6222  0.7057
  175EMC     C3 1868   0.391   3.823   0.089 -0.1467  0.5753 -0.4496
  175EMC     O1 1869   0.360   3.795   0.218 -0.3128 -0.3855 -0.2526
  175EMC     O2 1870   0.396   3.691   0.056 -0.3593  0.0009 -0.7800
  175EMC     O3 1871   0.342   3.912   0.025  0.3478 -0.4652  0.5483
  175EMC     H1 1872   0.437   3.950   0.309 -0.7229  1.7013  0.9941
  175EMC     H2 1873   0.319   3.873   0.407 -2.2808  0.1630 -0.5024
  175EMC     H3 1874   0.266   3.978   0.278  1.1150  1.5065  2.5177
  175EMC     C4 1875   0.381   3.505   4.410  0.1544  0.1643  0.4804
  175EMC     H4 1876   0.415   3.707   4.369  0.7930 -0.6728  0.4625
  175EMC     H5 1877   0.247   3.672   4.424  0.1628  1.9228  0.4401
  175EMC     H6 1878   0.355   3.435   4.489  0.5668 -1.2649 -0.5899
  175EMC     H7 1879   0.488   3.490   4.393  0.5198  1.8278  1.1828
  175EMC     H8 1880   0.340   3.477   4.313  0.7883  1.3623 -0.1484
  176EMC     C1 1881   2.772   4.401   0.307 -0.1090 -0.2871  0.3125
  176EMC     C2 1882   3.168   4.285   0.188 -0.0377 -0.0424 -0.3727
  176EMC     C3 1883   2.930   4.254   0.198  0.2511 -1.1406 -0.6574
  176EMC     O1 1884   2.862   4.284   0.308  0.5948 -0.4174 -0.0370
  176EMC     O2 1885   3.050   4.248   0.261  0.6160 -0.0216  0.6724
  176EMC     O3 1886   2.916   4.311   0.095  0.4372 -0.2645 -0.1473
  176EMC     H1 1887   2.733   4.426   0.406  0.0016  2.3705 -0.2443
  176EMC     H2 1888   2.687   4.391   0.240  3.0735 -0.4603 -4.1086
  176EMC     H3 1889   2.819   4.494   0.276 -0.3446  0.0919  1.0453
  176EMC     C4 1890   3.278   4.320   0.290 -0.4348  0.6685 -0.0296
  176EMC     H4 1891   3.153   4.361   0.111 -0.3764  0.8492  0.5608
  176EMC     H5 1892   3.204   4.197   0.135  0.8017 -0.5224  0.9387
  176EMC     H6 1893   3.364   4.373   0.248  2.2110 -0.8686  2.9612
  176EMC     H7 1894   3.313   4.231   0.343 -0.3804  1.6089  1.5961
  176EMC     H8 1895   3.240   4.381   0.372  1.0744 -0.5734  1.7157
  177EMC     C1 1896   3.839   4.196   1.207  0.3957 -0.1791  0.1104
  177EMC     C2 1897   3.653   4.088   1.562  0.2970  0.9638 -0.1954
  177EMC     C3 1898   3.773   4.258   1.437  0.1838 -0.1487  0.1487
  177EMC     O1 1899   3.742   4.242   1.308  0.4021 -0.0207  0.1722
  177EMC     O2 1900   3.661   4.209   1.484  0.1201 -0.0902  0.0955
  177EMC     O3 1901   3.884   4.231   1.486  0.2482  0.0895 -0.8531
  177EMC     H1 1902   3.846   4.087   1.220 -1.2915 -0.0508  3.1908
  177EMC     H2 1903   3.938   4.226   1.241  0.4491  1.4434 -1.3911
  177EMC     H3 1904   3.817   4.236   1.108 -1.2106 -1.5018 -0.1222
  177EMC     C4 1905   3.524   4.073   1.644  0.2245 -0.6531  0.3609
  177EMC     H4 1906   3.735   4.082   1.634 -1.3854  1.7473  1.9347
  177EMC     H5 1907   3.666   3.998   1.502 -0.3341  0.3672  0.5327
  177EMC     H6 1908   3.439   4.067   1.576 -2.2492  0.5550  3.1680
  177EMC     H7 1909   3.496   4.148   1.717  1.1657 -0.9742  1.0871
  177EMC     H8 1910   3.526   3.976   1.694  0.8992 -0.6028  0.4451
  178EMC     C1 1911   2.416   2.390   2.683  0.3258  0.4859 -0.6040
  178EMC     C2 1912   2.317   2.376   3.095 -0.2446 -0.7469 -0.1691
  178EMC     C3 1913   2.445   2.438   2.907  0.2584 -0.6472 -0.1927
  178EMC     O1 1914   2.367   2.458   2.797 -0.5943  0.4362  0.4705
  178EMC     O2 1915   2.336   2.456   2.977 -0.3521  0.0199 -0.1214
  178EMC     O3 1916   2.534   2.349   2.920 -0.3841 -0.3748 -0.1268
  178EMC     H1 1917   2.523   2.407   2.677  0.7506 -0.7759  2.0274
  178EMC     H2 1918   2.366   2.411   2.588  0.0505 -1.1995 -0.8607
  178EMC     H3 1919   2.408   2.283   2.704 -0.6646  0.8490  1.0465
  178EMC     C4 1920   2.183   2.413   3.154  0.2340  0.7294 -0.8314
  178EMC     H4 1921   2.393   2.389   3.172 -1.5225 -1.0937  1.1895
  178EMC     H5 1922   2.308   2.275   3.057  2.2517 -0.4885 -1.7433
  178EMC     H6 1923   2.165   2.364   3.249 -2.1201 -0.2312 -1.6946
  178EMC     H7 1924   2.100   2.396   3.084 -0.8081  3.2130 -0.3301
  178EMC     H8 1925   2.189   2.514   3.195  1.2262 -0.2044  1.4325
  179EMC     C1 1926   1.177   0.874   2.142  0.2456 -0.8109  0.2543
  179EMC     C2 1927   1.130   0.542   2.263  0.0779 -0.5890  0.6580
  179EMC     C3 1928   1.206   0.751   2.341  0.4299  0.2392  0.2336
  179EMC     O1 1929   1.254   0.786   2.222 -0.0142  0.3151 -0.4456
  179EMC     O2 1930   1.234   0.640   2.274  0.5985 -0.7778 -0.4228
  179EMC     O3 1931   1.092   0.785   2.386  0.0476 -0.3142  0.3451
  179EMC     H1 1932   1.235   0.918   2.061  0.7924  0.5015  1.3238
  179EMC     H2 1933   1.173   0.965   2.201 -0.1450  0.9296 -2.2983
  179EMC     H3 1934   1.081   0.834   2.108 -0.1267 -1.5086  2.0425
  179EMC     C4 1935   1.196   0.420   2.217 -0.2819  0.2972 -0.1481
  179EMC     H4 1936   1.068   0.574   2.179  2.2874 -2.2024 -1.7630
  179EMC     H5 1937   1.065   0.528   2.349 -0.3311 -2.4770  0.0741
  179EMC     H6 1938   1.134   0.331   2.228 -0.2192 -0.1065 -2.5427
  179EMC     H7 1939   1.291   0.407   2.269  0.7978  0.2606 -2.0324
  179EMC     H8 1940   1.227   0.425   2.113 -2.9300  1.5422 -0.9580
  180EMC     C1 1941   1.309   0.195   0.507  0.4220  0.1819 -0.9311
  180EMC     C2 1942   1.201   0.477   0.832 -0.1622  0.2592  0.3887
  180EMC     C3 1943   1.239   0.402   0.614  0.3378 -0.8410  0.4688
  180EMC     O1 1944   1.284   0.283   0.625 -0.1258 -0.4601  0.1984
  180EMC     O2 1945   1.164   0.406   0.717 -0.1040  0.4370  0.2416
  180EMC     O3 1946   1.200   0.451   0.506 -0.0999 -0.4920 -0.1153
  180EMC     H1 1947   1.374   0.251   0.440  1.3915 -2.2564 -2.1614
  180EMC     H2 1948   1.216   0.169   0.457  1.1059  0.8055 -2.5994
  180EMC     H3 1949   1.365   0.110   0.547 -1.5011 -0.0086  1.5931
  180EMC     C4 1950   1.105   0.458   0.947  0.8095 -0.7260  0.1263
  180EMC     H4 1951   1.208   0.583   0.807 -3.9926  0.5429 -0.0305
  180EMC     H5 1952   1.291   0.437   0.878 -1.2137 -0.5505  1.8410
  180EMC     H6 1953   1.146   0.502   1.037 -0.9010 -2.2033  1.7193
  180EMC     H7 1954   1.075   0.355   0.969  2.4584 -1.5043 -1.0200
  180EMC     H8 1955   1.011   0.506   0.919  0.7533  2.1006  4.3064
  181EMC     C1 1956   2.597   1.377   0.114 -0.1666 -0.0202 -0.8788
  181EMC     C2 1957   2.618   0.985   0.152  0.5890 -0.0208  0.9517
  181EMC     C3 1958   2.724   1.191   0.175 -0.4683 -0.0492 -0.1211
  181EMC     O1 1959   2.636   1.281   0.213  0.4227  0.2496 -0.2318
  181EMC     O2 1960   2.642   1.099   0.231  0.4887 -0.6001 -0.0733
  181EMC     O3 1961   2.766   1.175   0.058  0.6430 -0.5930 -0.4628
  181EMC     H1 1962   2.628   1.349   0.013 -2.3686 -0.9671 -1.3474
  181EMC     H2 1963   2.633   1.477   0.139 -1.9367  0.7950 -1.3538
  181EMC     H3 1964   2.488   1.383   0.105 -0.1676  0.1994 -0.7317
  181EMC     C4 1965   2.538   0.878   0.232  0.1747 -0.3311  0.2536
  181EMC     H4 1966   2.717   0.952   0.120 -0.2381 -1.0957 -0.6551
  181EMC     H5 1967   2.564   1.012   0.061 -2.4583 -1.8082  2.1067
  181EMC     H6 1968   2.441   0.918   0.263 -0.4764  0.3159 -2.3853
  181EMC     H7 1969   2.593   0.849   0.322 -0.6874 -0.2481  0.8178
  181EMC     H8 1970   2.537   0.793   0.163  0.9833  1.5197 -2.1440
  182EMC     C1 1971   1.905   1.803   3.572 -0.0611 -0.1661 -0.2965
  182EMC     C2 1972   1.716   1.649   3.862 -0.1666  0.3814  0.1270
  182EMC     C3 1973   1.769   1.613   3.626  0.3111 -0.8208  0.1924
  182EMC     O1 1974   1.776   1.739   3.593  0.4026 -0.0614 -0.1491
  182EMC     O2 1975   1.679   1.647   3.721 -0.2933 -0.2043  0.6908
  182EMC     O3 1976   1.868   1.547   3.641 -0.7541  0.6173  0.5325
  182EMC     H1 1977   1.942   1.738   3.494 -0.0263 -1.9060  1.1021
  182EMC     H2 1978   1.970   1.811   3.659  1.6449  1.0846 -1.6090
  182EMC     H3 1979   1.892   1.903   3.530  0.0085  0.4219  1.0013
  182EMC     C4 1980   1.588   1.694   3.944  0.1958 -0.2612 -0.3888
  182EMC     H4 1981   1.797   1.722   3.866 -1.1351  1.4463  1.1219
  182EMC     H5 1982   1.771   1.564   3.903  1.6995  1.0114 -0.9538
  182EMC     H6 1983   1.505   1.632   3.909  1.1284 -1.3613 -0.7129
  182EMC     H7 1984   1.538   1.790   3.930 -0.6916 -0.5187  0.8613
  182EMC     H8 1985   1.615   1.675   4.048  2.2009 -2.2620 -1.1948
  183EMC     C1 1986   1.901   0.759   0.874  0.7702  0.1847  0.1414
  183EMC     C2 1987   1.699   0.861   0.467 -0.0401 -0.5760  1.0723
  183EMC     C3 1988   1.853   0.836   0.658  0.4679 -0.0682 -1.0121
  183EMC     O1 1989   1.847   0.738   0.747  0.7394  0.2524  0.1728
  183EMC     O2 1990   1.733   0.820   0.604  0.4702  0.4667  0.3246
  183EMC     O3 1991   1.926   0.934   0.665  0.1324  0.2825 -0.4629
  183EMC     H1 1992   1.853   0.683   0.936  0.1886  0.5013  0.0881
  183EMC     H2 1993   1.875   0.848   0.932  1.7255 -0.2206  1.2456
  183EMC     H3 1994   2.008   0.755   0.897  1.1094  3.0187 -0.5171
  183EMC     C4 1995   1.553   0.815   0.443  0.9822  0.1599  0.1895
  183EMC     H4 1996   1.767   0.823   0.390  0.6511 -0.1187  1.4456
  183EMC     H5 1997   1.705   0.969   0.457 -1.0520 -0.7166 -1.7040
  183EMC     H6 1998   1.487   0.865   0.514  1.3437 -2.7778  2.8073
  183EMC     H7 1999   1.555   0.707   0.459  2.1615 -0.3290 -2.6493
  183EMC     H8 2000   1.509   0.840   0.346 -1.3852  2.2946  1.6705
  184EMC     C1 2001   2.737   3.276   1.386  0.2029  0.8125 -0.3814
  184EMC     C2 2002   2.469   3.118   1.086  1.1675 -0.5151  0.2184
  184EMC     C3 2003   2.515   3.230   1.294  0.0519  0.3263 -0.7067
  184EMC     O1 2004   2.631   3.185   1.359  0.4719  0.1880 -0.0624
  184EMC     O2 2005   2.496   3.115   1.225 -0.8719  1.2387  0.4057
  184EMC     O3 2006   2.506   3.346   1.244  0.0600 -0.4773  0.2350
  184EMC     H1 2007   2.703   3.375   1.416 -0.4663 -0.1984  2.6043
  184EMC     H2 2008   2.790   3.305   1.295 -1.2842  2.6675 -0.7164
  184EMC     H3 2009   2.805   3.244   1.465 -0.2473  0.7106 -0.0334
  184EMC     C4 2010   2.454   2.973   1.047 -0.3214  0.3743 -0.6052
  184EMC     H4 2011   2.548   3.174   1.035  2.1583 -0.8882  1.3059
  184EMC     H5 2012   2.377   3.173   1.066  1.6286 -0.1237 -0.9504
  184EMC     H6 2013   2.539   2.910   1.074 -0.6034 -0.1491 -0.9201
  184EMC     H7 2014   2.434   2.959   0.941 -0.7399 -1.4110 -0.3170
  184EMC     H8 2015   2.367   2.929   1.096  0.2961 -2.6637 -2.0198
  185EMC     C1 2016   4.312   2.765   2.462  0.1831  0.0498 -0.2244
  185EMC     C2 2017   4.234   2.539   2.811  0.1433  0.1519 -0.4721
  185EMC     C3 2018   4.324   2.728   2.701  0.3722 -0.1159 -0.1818
  185EMC     O1 2019   4.256   2.782   2.591 -0.3114 -0.3032 -0.8614
  185EMC     O2 2020   4.217   2.666   2.750 -0.3113  0.0792 -0.5687
  185EMC     O3 2021   4.441   2.695   2.712 -0.0400 -0.3433  0.2139
  185EMC     H1 2022   4.252   2.811   2.383 -0.8761  1.9176  1.5637
  185EMC     H2 2023   4.318   2.658   2.444 -0.3558 -1.0250  4.6660
  185EMC     H3 2024   4.416   2.797   2.449  0.4122 -0.2314  0.8617
  185EMC     C4 2025   4.240   2.424   2.710 -0.1028  0.4272 -0.5649
  185EMC     H4 2026   4.147   2.517   2.872  0.4730  1.2045  0.4258
  185EMC     H5 2027   4.324   2.540   2.873  0.5942  0.6501 -1.1214
  185EMC     H6 2028   4.288   2.449   2.616  0.4258 -1.3466 -0.8111
  185EMC     H7 2029   4.138   2.387   2.706 -0.1169  0.4017 -0.0622
  185EMC     H8 2030   4.304   2.350   2.760  0.2536  1.5980  0.7811
  186EMC     C1 2031   0.033   0.613   4.064 -0.0776  0.1820 -0.3940
  186EMC     C2 2032   0.272   0.899   4.224 -0.4932 -0.3550 -0.4907
  186EMC     C3 2033   0.218   0.756   4.056 -0.5024  0.1339  0.3458
  186EMC     O1 2034   0.086   0.745   4.057 -0.7699  0.6266  1.0099
  186EMC     O2 2035   0.198   0.874   4.108 -0.2303 -0.2511 -0.5608
  186EMC     O3 2036   0.298   0.673   4.101 -0.3344 -0.7345 -0.6543
  186EMC     H1 2037   4.435   0.622   4.070  0.1263  3.8556  0.3055
  186EMC     H2 2038   0.081   0.570   4.151  1.0349 -2.0301 -1.9927
  186EMC     H3 2039   0.054   0.555   3.974 -1.0976 -1.1183  0.1782
  186EMC     C4 2040   0.266   1.051   4.255  0.8810  0.8113  0.1423
  186EMC     H4 2041   0.378   0.874   4.213  0.0466  0.3052  2.3375
  186EMC     H5 2042   0.234   0.847   4.312 -0.1103  0.3589  0.1032
  186EMC     H6 2043   0.326   1.083   4.340  1.8777 -0.2093 -0.1562
  186EMC     H7 2044   0.163   1.077   4.280  0.6111  0.2558 -0.3495
  186EMC     H8 2045   0.296   1.107   4.167  1.2033 -0.5824 -0.6634
  187EMC     C1 2046   3.641   0.248   4.351 -0.0663 -0.4636 -0.1213
  187EMC     C2 2047   3.985   0.062   4.419  0.2124  0.4101 -0.3460
  187EMC     C3 2048   3.867   0.272   4.435 -0.5542 -0.2440  0.1533
  187EMC     O1 2049   3.777   0.280   4.338 -0.6531  0.3736 -0.5945
  187EMC     O2 2050   3.921   0.177   4.366  0.3316  0.1403  0.4806
  187EMC     O3 2051   3.844   0.266   0.044 -0.2458  0.2512  0.1004
  187EMC     H1 2052   3.595   0.238   4.253 -3.4179  0.2765  1.2450
  187EMC     H2 2053   3.587   0.329   4.400  0.0037  0.1537 -1.0219
  187EMC     H3 2054   3.620   0.162   4.414 -3.1523 -0.2039 -0.6123
  187EMC     C4 2055   3.977   4.458   4.314  0.4022  0.1151  0.6938
  187EMC     H4 2056   3.934   0.029   4.509 -0.0285  2.2715  0.2514
  187EMC     H5 2057   4.091   0.082   4.438  0.8181 -2.3848 -0.3129
  187EMC     H6 2058   4.022   4.363   4.342 -0.9151 -0.2176  1.7914
  187EMC     H7 2059   4.032   4.482   4.223 -2.1105 -0.8263 -1.1815
  187EMC     H8 2060   3.871   4.439   4.296  0.2100  1.6015  0.0826
  188EMC     C1 2061   4.044   1.926   2.479 -0.2252  0.1046  0.2855
  188EMC     C2 2062   4.438   1.919   2.674  0.5692 -0.2399  0.2026
  188EMC     C3 2063   4.205   1.945   2.648  0.0847 -0.5430  0.2644
  188EMC     O1 2064   4.113   1.875   2.588 -0.3418  0.0576 -0.0418
  188EMC     O2 2065   4.313   1.862   2.647  0.5927  0.1869  0.5084
  188EMC     O3 2066   4.219   2.061   2.635 -0.2099  0.4293 -0.2846
  188EMC     H1 2067   4.111   1.918   2.393  1.7513  1.6372  1.5636
  188EMC     H2 2068   4.014   2.030   2.494  1.9264  0.8216  0.0143
  188EMC     H3 2069   3.959   1.859   2.473  1.3303 -2.2804  2.5645
  188EMC     C4 2070   0.034   1.808   2.719 -0.0111  0.1974  0.1641
  188EMC     H4 2071   4.440   1.998   2.749  4.0173 -1.1382  1.1986
  188EMC     H5 2072   4.472   1.966   2.582 -2.0244  0.3089 -0.5794
  188EMC     H6 2073   0.136   1.838   2.739  0.3561  2.2270 -3.6660
  188EMC     H7 2074   0.029   1.731   2.642 -2.1708 -0.6669  1.0907
  188EMC     H8 2075   4.509   1.763   2.812 -0.7275 -2.2394 -1.1824
  189EMC     C1 2076   2.597   0.689   2.946 -0.1064  0.1288  0.3844
  189EMC     C2 2077   2.251   0.911   3.091 -0.3267  0.4238  0.6573
  189EMC     C3 2078   2.398   0.728   3.065  0.3109 -0.5726 -0.1625
  189EMC     O1 2079   2.524   0.688   3.069 -0.0096  0.4377 -0.0683
  189EMC     O2 2080   2.365   0.837   3.130 -0.1323  0.4461 -0.1370
  189EMC     O3 2081   2.337   0.694   2.960  0.5129 -0.2570 -1.1106
  189EMC     H1 2082   2.553   0.764   2.880  1.4819  0.3330 -0.4672
  189EMC     H2 2083   2.593   0.591   2.900  0.3469  0.4319 -0.3074
  189EMC     H3 2084   2.701   0.716   2.964  0.5726 -1.2702 -1.2923
  189EMC     C4 2085   2.199   0.986   3.214  0.1674  0.6995 -0.4368
  189EMC     H4 2086   2.170   0.842   3.070  0.6269 -0.4803 -0.1770
  189EMC     H5 2087   2.271   0.962   2.997 -0.2076 -1.8945 -0.6567
  189EMC     H6 2088   2.113   1.048   3.190  0.5496  1.4397  0.0599
  189EMC     H7 2089   2.277   1.046   3.262 -0.2586 -0.3672  1.6856
  189EMC     H8 2090   2.155   0.915   3.284 -1.0566  0.0867 -1.7753
  190EMC     C1 2091   0.881   2.459   1.590  0.1699 -1.0807  0.3163
  190EMC     C2 2092   0.943   2.714   1.288  0.6205  0.6185  0.0172
  190EMC     C3 2093   1.023   2.619   1.492 -0.2932 -1.0033 -0.9404
  190EMC     O1 2094   0.905   2.586   1.545 -0.3957  0.3627  0.7612
  190EMC     O2 2095   0.949   2.709   1.426  0.1297  0.1911 -0.3777
  190EMC     O3 2096   1.094   2.542   1.428  0.0520  0.0394 -0.3106
  190EMC     H1 2097   0.775   2.442   1.570  0.1704 -1.6937  0.7822
  190EMC     H2 2098   0.900   2.455   1.697  1.8315 -1.2737  0.0341
  190EMC     H3 2099   0.939   2.381   1.540 -2.3772 -2.2257 -1.0920
  190EMC     C4 2100   0.952   2.859   1.254 -0.4046 -0.0399 -0.3446
  190EMC     H4 2101   0.850   2.673   1.249 -0.5460  0.7301  2.4969
  190EMC     H5 2102   1.025   2.662   1.238 -0.0271 -0.9986  0.5673
  190EMC     H6 2103   0.983   2.892   1.155  0.8485  0.9157  0.3337
  190EMC     H7 2104   1.026   2.911   1.315  2.9759 -0.9493 -3.3122
  190EMC     H8 2105   0.865   2.921   1.273  0.1545  0.8248 -0.5357
  191EMC     C1 2106   1.366   1.892   3.368  0.2403 -0.0153 -0.3519
  191EMC     C2 2107   1.202   2.210   3.423  0.4782 -0.3931  0.0688
  191EMC     C3 2108   1.239   2.011   3.535 -0.3100  0.8500 -0.2164
  191EMC     O1 2109   1.358   1.983   3.475  0.4080 -0.4422  0.6395
  191EMC     O2 2110   1.282   2.129   3.499  0.3914  0.0923 -0.2766
  191EMC     O3 2111   1.132   1.960   3.505 -0.3323  0.0703  0.1241
  191EMC     H1 2112   1.309   1.928   3.282  1.5020  0.1403 -1.1491
  191EMC     H2 2113   1.321   1.793   3.381  0.3338  0.0350  0.3706
  191EMC     H3 2114   1.465   1.883   3.323  0.4789 -1.6448  0.4426
  191EMC     C4 2115   1.290   2.333   3.377 -0.2017 -0.1154 -0.2468
  191EMC     H4 2116   1.126   2.231   3.498 -2.1586 -0.4521 -2.4240
  191EMC     H5 2117   1.150   2.162   3.340 -0.8017 -0.2037  0.7423
  191EMC     H6 2118   1.328   2.384   3.465 -0.7073 -0.1765  0.0100
  191EMC     H7 2119   1.237   2.409   3.320 -0.3132  0.0197  0.0356
  191EMC     H8 2120   1.362   2.288   3.308 -0.2759  1.8026 -1.6725
  192EMC     C1 2121   3.705   4.307   0.492 -0.0958 -0.5570  0.7249
  192EMC     C2 2122   3.660   4.450   0.122 -0.6454 -0.3400  0.4796
  192EMC     C3 2123   3.718   4.500   0.344 -0.0147 -0.2591  0.6604
  192EMC     O1 2124   3.779   4.399   0.410  0.2295 -0.1791 -0.1871
  192EMC     O2 2125   3.657   4.422   0.261 -0.4456  0.4342 -0.1019
  192EMC     O3 2126   3.773   0.098   0.310 -0.5912 -0.4951  0.2277
  192EMC     H1 2127   3.608   4.342   0.527 -0.3873  0.3056 -0.8491
  192EMC     H2 2128   3.748   4.273   0.586  0.3249 -1.6314  0.1664
  192EMC     H3 2129   3.676   4.217   0.437  1.5108 -0.4755 -0.3022
  192EMC     C4 2130   3.612   4.331   0.034  0.3213  0.5304 -0.5104
  192EMC     H4 2131   3.755   4.484   0.081 -0.9447 -2.9332 -2.7093
  192EMC     H5 2132   3.599   0.026   0.095 -0.8552 -1.3505 -2.6783
  192EMC     H6 2133   3.673   4.243   0.054  2.6355  2.2874  0.7217
  192EMC     H7 2134   3.620   4.345   4.436 -0.2099  4.0572 -0.2256
  192EMC     H8 2135   3.510   4.297   0.052  1.2989 -1.8054  1.0142
  193EMC     C1 2136   3.901   1.437   1.133 -0.1247  0.4417 -0.4616
  193EMC     C2 2137   3.502   1.398   1.054  0.6020  0.6316  0.3768
  193EMC     C3 2138   3.725   1.289   1.092  1.0330 -0.5566 -0.2781
  193EMC     O1 2139   3.777   1.407   1.073 -0.0553 -0.2650 -0.9057
  193EMC     O2 2140   3.584   1.278   1.063 -0.1554  0.3841 -0.3815
  193EMC     O3 2141   3.801   1.192   1.111  0.2375  0.8301  0.1509
  193EMC     H1 2142   3.947   1.521   1.082 -0.4836  0.3658 -0.9186
  193EMC     H2 2143   3.973   1.356   1.125 -0.5348  0.0188  0.0238
  193EMC     H3 2144   3.882   1.462   1.238 -0.3551  0.4951 -0.5150
  193EMC     C4 2145   3.350   1.366   1.046 -0.4943 -0.2866 -0.0574
  193EMC     H4 2146   3.524   1.431   0.952  1.0035  0.1319  0.2993
  193EMC     H5 2147   3.533   1.473   1.127  0.4987 -2.0705  3.3629
  193EMC     H6 2148   3.331   1.302   0.960 -1.4980 -0.2787  0.1361
  193EMC     H7 2149   3.280   1.450   1.048 -1.2010 -0.8838  0.4800
  193EMC     H8 2150   3.331   1.311   1.138 -0.9678 -0.5952 -0.3329
  194EMC     C1 2151   0.471   3.763   4.058  0.4277 -0.2481  0.6905
  194EMC     C2 2152   0.076   3.865   4.000 -0.8171  0.2791 -0.0139
  194EMC     C3 2153   0.239   3.743   4.124  0.3120 -0.7121 -0.1038
  194EMC     O1 2154   0.340   3.712   4.041  0.4813  0.7126 -0.1336
  194EMC     O2 2155   0.183   3.763   4.005  1.3855 -0.3331  0.6269
  194EMC     O3 2156   0.250   3.825   4.215  0.4047 -0.0638 -0.2589
  194EMC     H1 2157   0.536   3.681   4.089  1.9311  0.9608  0.8384
  194EMC     H2 2158   0.495   3.845   4.125 -1.5384  0.9165  0.0503
  194EMC     H3 2159   0.504   3.793   3.958  3.4722  0.1326  1.6855
  194EMC     C4 2160   0.040   3.886   3.852  0.1696  0.7020 -0.5564
  194EMC     H4 2161   0.107   3.964   4.035  0.6877  0.5500 -1.9762
  194EMC     H5 2162   4.494   3.843   4.054  0.6757 -3.9949  1.1614
  194EMC     H6 2163   0.134   3.892   3.797  0.1517  0.8657 -0.5672
  194EMC     H7 2164   4.486   3.973   3.840 -0.7587  0.6037  2.6775
  194EMC     H8 2165   4.494   3.804   3.807 -0.5516  0.5087  0.6372
  195EMC     C1 2166   2.091   1.381   2.564 -0.0671 -0.1232 -0.2953
  195EMC     C2 2167   2.319   1.324   2.936  0.3493 -0.9472 -0.0962
  195EMC     C3 2168   2.258   1.463   2.737 -0.3657 -0.4606 -0.0440
  195EMC     O1 2169   2.228   1.395   2.627 -0.7103  0.8923  0.0973
  195EMC     O2 2170   2.334   1.367   2.798  0.3305 -0.2170 -0.3053
  195EMC     O3 2171   2.173   1.525   2.798  0.6869  0.0775  0.3210
  195EMC     H1 2172   2.008   1.410   2.629  1.5243  1.1010  1.3177
  195EMC     H2 2173   2.068   1.276   2.550 -1.5867  0.2543 -0.7576
  195EMC     H3 2174   2.097   1.426   2.465  2.5545 -0.7618 -0.5087
  195EMC     C4 2175   2.425   1.228   2.981 -0.4039  0.0859  0.1520
  195EMC     H4 2176   2.221   1.284   2.961  0.0548 -1.2116 -1.5792
  195EMC     H5 2177   2.323   1.418   2.991 -0.9664 -0.3141 -1.0247
  195EMC     H6 2178   2.524   1.259   2.947 -0.6050  1.0938  0.4298
  195EMC     H7 2179   2.412   1.125   2.948 -0.8397  0.5119 -1.0753
  195EMC     H8 2180   2.426   1.219   3.089  1.6131 -0.6413  0.1172
  196EMC     C1 2181   1.333   0.117   1.914  0.1291 -0.0001  0.1105
  196EMC     C2 2182   1.267   4.206   1.935 -0.0288 -0.2485  0.0057
  196EMC     C3 2183   1.230   4.429   1.841  0.0988  1.1452 -0.2108
  196EMC     O1 2184   1.305   0.028   1.813  0.0904  0.0132 -0.2072
  196EMC     O2 2185   1.301   4.343   1.925  0.4010 -0.1654  0.0854
  196EMC     O3 2186   1.156   4.388   1.754  0.2800  0.6711 -0.3313
  196EMC     H1 2187   1.237   0.142   1.960  0.9233  2.7328  0.4633
  196EMC     H2 2188   1.365   0.212   1.871  1.6341 -0.4898  0.1115
  196EMC     H3 2189   1.416   0.090   1.979 -1.2507 -1.2107  1.4382
  196EMC     C4 2190   1.315   4.152   2.070 -0.1903  0.8835  0.1096
  196EMC     H4 2191   1.309   4.157   1.848 -0.0849 -1.6300  0.7157
  196EMC     H5 2192   1.158   4.201   1.937 -0.0223 -0.3279  0.7590
  196EMC     H6 2193   1.421   4.173   2.080  0.0648 -0.4521  0.4763
  196EMC     H7 2194   1.308   4.045   2.092  0.2568  0.4497 -1.7360
  196EMC     H8 2195   1.262   4.204   2.150 -0.1575  0.5378  0.3592
  197EMC     C1 2196   4.231   3.831   3.620  0.2044 -0.6820 -0.1245
  197EMC     C2 2197   4.230   3.841   3.194  0.3163 -0.2345 -0.6999
  197EMC     C3 2198   4.274   3.942   3.410  0.4138 -0.0878  0.0751
  197EMC     O1 2199   4.319   3.859   3.508  0.3292  0.1932  0.2956
  197EMC     O2 2200   4.293   3.842   3.318  0.1080  0.7440 -0.0993
  197EMC     O3 2201   4.161   3.999   3.404 -0.1716 -0.2217 -0.0238
  197EMC     H1 2202   4.150   3.765   3.587  0.1064 -0.5558 -0.1391
  197EMC     H2 2203   4.177   3.923   3.643  1.0761  0.3387 -1.9019
  197EMC     H3 2204   4.273   3.795   3.713 -1.8005 -1.0637  0.6828
  197EMC     C4 2205   4.237   3.712   3.126 -0.3559  0.4326 -0.6369
  197EMC     H4 2206   4.255   3.924   3.128 -2.8583  2.2874  0.9777
  197EMC     H5 2207   4.123   3.847   3.213  0.2933  0.7155 -1.0872
  197EMC     H6 2208   4.210   3.629   3.191 -0.3192  0.6456 -0.3487
  197EMC     H7 2209   4.342   3.686   3.106  0.4887  0.5641  2.9816
  197EMC     H8 2210   4.178   3.719   3.035  0.8287 -3.5974 -1.9089
  198EMC     C1 2211   3.347   1.184   0.673 -0.4089  0.1604 -0.1747
  198EMC     C2 2212   3.176   1.146   0.329  0.2318  0.7906  0.5561
  198EMC     C3 2213   3.391   1.160   0.432  0.8172  0.7936 -0.2171
  198EMC     O1 2214   3.364   1.104   0.555  0.6439  0.1840  0.0624
  198EMC     O2 2215   3.280   1.086   0.407  0.7477  0.1466  0.5202
  198EMC     O3 2216   3.395   1.276   0.408  0.2942 -0.1876  0.2916
  198EMC     H1 2217   3.238   1.192   0.671 -0.4224 -0.1002 -1.3095
  198EMC     H2 2218   3.392   1.280   0.651  0.2225 -0.4596 -1.7235
  198EMC     H3 2219   3.373   1.126   0.762 -0.7829 -1.9443 -1.3504
  198EMC     C4 2220   3.066   1.049   0.339  0.0599 -0.5262 -0.0245
  198EMC     H4 2221   3.214   1.159   0.228  1.3200  0.4248  0.8996
  198EMC     H5 2222   3.144   1.245   0.360 -0.1987  0.9298 -0.3217
  198EMC     H6 2223   3.110   0.949   0.344 -1.0503 -1.1169 -1.5350
  198EMC     H7 2224   2.999   1.047   0.253 -0.5397  1.6668  0.3324
  198EMC     H8 2225   3.015   1.055   0.435 -1.8177 -2.2538 -0.8283
  199EMC     C1 2226   1.215   4.431   4.380 -0.0337  0.4859  0.4166
  199EMC     C2 2227   0.864   0.171   4.393 -0.2731  0.5467  0.3880
  199EMC     C3 2228   1.054   0.069   4.297 -0.3190  0.8528  0.0863
  199EMC     O1 2229   1.081   4.479   4.384 -0.6588 -0.1411  0.1395
  199EMC     O2 2230   0.926   0.063   4.323 -0.6041 -0.1099  0.1341
  199EMC     O3 2231   1.126   0.169   4.292  0.4045 -0.2348 -0.2631
  199EMC     H1 2232   1.290   0.001   4.375 -1.0165  1.3683 -1.0112
  199EMC     H2 2233   1.212   4.366   4.293 -0.5942 -0.5055  1.1599
  199EMC     H3 2234   1.226   4.373   4.471 -2.7286 -0.9719 -0.0757
  199EMC     C4 2235   0.721   0.123   4.422 -0.3114 -0.5371  0.7829
  199EMC     H4 2236   0.872   0.252   4.320 -1.1169 -0.9717 -1.5001
  199EMC     H5 2237   0.909   0.207   4.485  0.9031  2.9496 -1.0214
  199EMC     H6 2238   0.682   0.192   4.496  1.3600  1.0588  0.2314
  199EMC     H7 2239   0.711   0.018   4.449 -2.6573 -0.5775 -0.0124
  199EMC     H8 2240   0.661   0.122   4.331  0.8251 -0.1710  0.0021
  200EMC     C1 2241   1.737   2.004   2.918  0.3580 -0.1369 -0.1641
  200EMC     C2 2242   1.967   1.943   3.162 -0.1436  0.1229 -0.2503
  200EMC     C3 2243   1.958   1.968   2.922  0.5288  0.4922  0.1117
  200EMC     O1 2244   1.866   2.063   2.931 -0.3763 -0.3477  0.5465
  200EMC     O2 2245   1.970   2.023   3.045  0.0234 -0.0512  0.1131
  200EMC     O3 2246   1.936   1.848   2.903  0.2236 -0.1317  0.2084
  200EMC     H1 2247   1.664   2.084   2.925  0.3009  0.1132 -2.6978
  200EMC     H2 2248   1.722   1.930   2.996  0.9138  1.2950  1.3483
  200EMC     H3 2249   1.726   1.956   2.820  0.8752 -0.3938 -0.0974
  200EMC     C4 2250   1.999   2.036   3.277 -0.2713  0.1490 -0.5490
  200EMC     H4 2251   2.030   1.856   3.141 -2.6592 -1.4040 -2.1233
  200EMC     H5 2252   1.866   1.902   3.171  0.2436 -0.8651 -0.3003
  200EMC     H6 2253   1.906   2.089   3.298  1.2757  3.6601 -1.8270
  200EMC     H7 2254   2.076   2.110   3.257 -0.5074 -0.0618 -2.3612
  200EMC     H8 2255   2.035   1.980   3.364  0.5322  0.4390 -0.6838
  201EMC     C1 2256   3.620   1.582   3.849 -1.0929  0.6195  0.0047
  201EMC     C2 2257   3.848   1.771   4.161  0.1031 -0.1523 -0.4000
  201EMC     C3 2258   3.778   1.584   4.021 -0.1872  0.3713 -0.1419
  201EMC     O1 2259   3.660   1.625   3.978  0.1064  0.2876  0.4562
  201EMC     O2 2260   3.749   1.679   4.111  0.2049  0.5269 -0.0142
  201EMC     O3 2261   3.885   1.572   3.958 -0.0373 -0.0309  0.7289
  201EMC     H1 2262   3.689   1.614   3.771 -0.2724  1.9728  1.2205
  201EMC     H2 2263   3.527   1.633   3.826 -2.9930 -1.4677  2.5023
  201EMC     H3 2264   3.602   1.476   3.862  1.4450  0.2126  0.7341
  201EMC     C4 2265   3.800   1.843   4.288  0.3306 -0.0750  0.4005
  201EMC     H4 2266   3.878   1.831   4.075 -2.0925  0.1396 -1.0285
  201EMC     H5 2267   3.938   1.715   4.186  0.7761  0.3660 -1.5495
  201EMC     H6 2268   3.779   1.780   4.375  1.3174  0.7742  1.2843
  201EMC     H7 2269   3.707   1.895   4.268  0.0799 -0.8492 -0.4826
  201EMC     H8 2270   3.875   1.914   4.323  1.5802 -1.1404 -0.0458
  202EMC     C1 2271   2.045   1.798   4.130 -0.5069 -0.3210  0.3499
  202EMC     C2 2272   2.099   2.103   3.779 -0.3397 -0.5519  0.1815
  202EMC     C3 2273   2.055   1.979   3.969 -0.1851  0.1175 -0.0853
  202EMC     O1 2274   2.009   1.850   3.998 -0.5636 -0.2838 -0.0251
  202EMC     O2 2275   2.058   1.984   3.837 -0.2804 -0.1982 -0.1008
  202EMC     O3 2276   2.110   2.055   4.044  0.1496  0.0081  0.1392
  202EMC     H1 2277   2.008   1.699   4.155 -2.8329  0.1764 -0.8886
  202EMC     H2 2278   2.021   1.857   4.218 -0.1351  1.1300 -0.4816
  202EMC     H3 2279   2.154   1.793   4.129 -0.3219  2.1463  0.9789
  202EMC     C4 2280   2.096   2.094   3.629  0.0586  0.1116 -0.5490
  202EMC     H4 2281   2.201   2.129   3.807 -0.6431  1.2344 -0.3196
  202EMC     H5 2282   2.046   2.193   3.809  0.3522  0.1066 -0.5197
  202EMC     H6 2283   2.133   1.996   3.600 -1.8034 -0.7671 -0.0465
  202EMC     H7 2284   2.162   2.164   3.579  1.4685 -2.1530 -2.0201
  202EMC     H8 2285   1.998   2.098   3.582  0.4641 -0.6519 -1.4892
  203EMC     C1 2286   4.035   1.970   0.704  0.6315  0.2063 -0.1027
  203EMC     C2 2287   4.046   2.067   0.328 -0.0167 -0.4614  0.2615
  203EMC     C3 2288   4.126   1.902   0.498  0.4584  0.6358 -0.0921
  203EMC     O1 2289   4.116   1.998   0.593 -0.0559 -0.1755 -0.3341
  203EMC     O2 2290   4.140   2.018   0.428  0.1592 -0.5445  0.3401
  203EMC     O3 2291   4.040   1.814   0.487 -0.6590  0.3039  0.4616
  203EMC     H1 2292   4.106   1.927   0.775  2.6624 -0.3399 -2.3416
  203EMC     H2 2293   3.951   1.900   0.701  1.2860 -0.6120 -3.7833
  203EMC     H3 2294   3.996   2.059   0.754  2.0470  0.1405  1.1856
  203EMC     C4 2295   4.128   2.166   0.235 -0.0752  0.3688 -0.4325
  203EMC     H4 2296   3.953   2.111   0.364 -0.5952 -0.9667 -0.5883
  203EMC     H5 2297   4.013   1.991   0.257  2.5895 -1.2207 -0.2353
  203EMC     H6 2298   4.195   2.100   0.179 -0.1482  0.1342 -0.2456
  203EMC     H7 2299   4.191   2.237   0.289  4.0262 -1.4410 -2.3687
  203EMC     H8 2300   4.064   2.210   0.159  0.4126 -2.5867 -2.7443
  204EMC     C1 2301   3.373   3.354   0.410 -0.6598 -0.5764 -0.4443
  204EMC     C2 2302   3.456   3.563   0.698 -0.3825 -0.0458 -1.0809
  204EMC     C3 2303   3.305   3.552   0.517  0.5826 -0.5722 -0.4015
  204EMC     O1 2304   3.384   3.493   0.437 -0.5197 -0.5189  0.4981
  204EMC     O2 2305   3.410   3.608   0.572  0.2831 -0.8859  0.3046
  204EMC     O3 2306   3.225   3.489   0.585 -0.0185 -0.0716 -1.1275
  204EMC     H1 2307   3.296   3.304   0.468 -1.2775 -1.4361 -1.9324
  204EMC     H2 2308   3.457   3.291   0.438 -1.0185  0.1810  2.6868
  204EMC     H3 2309   3.347   3.334   0.306  0.1325 -0.2729 -0.7075
  204EMC     C4 2310   3.576   3.660   0.735 -0.1230 -0.0940 -0.2519
  204EMC     H4 2311   3.487   3.459   0.693 -1.8586 -0.4754 -1.6381
  204EMC     H5 2312   3.380   3.579   0.775  1.1222  1.5657  0.1575
  204EMC     H6 2313   3.655   3.662   0.660 -0.1828 -0.4992 -0.3280
  204EMC     H7 2314   3.625   3.620   0.823 -0.2554  0.9900  0.3189
  204EMC     H8 2315   3.546   3.763   0.756  1.6073  0.7266 -1.5877
  205EMC     C1 2316   3.369   4.078   4.348 -0.5164  0.0165 -0.4964
  205EMC     C2 2317   3.356   3.726   0.067 -0.3448 -0.6965 -0.0731
  205EMC     C3 2318   3.385   3.851   4.374  0.0649 -0.3314  0.1320
  205EMC     O1 2319   3.445   3.965   4.372 -0.1550 -0.7474  0.4658
  205EMC     O2 2320   3.438   3.804   4.486 -0.0825  0.3415  0.2200
  205EMC     O3 2321   3.270   3.832   4.339  0.4163 -0.1278 -0.3244
  205EMC     H1 2322   3.284   4.077   4.416 -0.3726 -0.7000 -0.3214
  205EMC     H2 2323   3.338   4.094   4.244 -0.5691 -0.0132 -0.4850
  205EMC     H3 2324   3.429   4.167   4.366 -1.6245  0.2946  2.2601
  205EMC     C4 2325   3.387   3.755   0.218 -0.3872 -0.3105  0.0506
  205EMC     H4 2326   3.366   3.623   0.034 -0.6734 -0.6995 -0.1727
  205EMC     H5 2327   3.251   3.751   0.052 -0.0592  2.3965  2.1942
  205EMC     H6 2328   3.308   3.710   0.278 -2.2430  0.4020 -1.7346
  205EMC     H7 2329   3.385   3.863   0.231  0.2636 -0.3636  0.6385
  205EMC     H8 2330   3.491   3.732   0.244  1.3998  5.7800 -0.2379
  206EMC     C1 2331   1.237   1.188   1.269  0.0350 -0.0983 -0.1537
  206EMC     C2 2332   1.236   0.801   1.350 -0.1249 -0.0825  0.0960
  206EMC     C3 2333   1.128   0.985   1.248  0.3998 -0.4199 -0.1367
  206EMC     O1 2334   1.209   1.078   1.190 -0.0967 -0.1421  0.2050
  206EMC     O2 2335   1.220   0.894   1.242  0.0853 -0.2915  0.3774
  206EMC     O3 2336   1.052   0.990   1.346  0.4579 -0.4173  0.2731
  206EMC     H1 2337   1.154   1.256   1.287 -0.1488 -0.3458 -0.0741
  206EMC     H2 2338   1.305   1.246   1.206  0.3155  0.0328  0.2652
  206EMC     H3 2339   1.284   1.164   1.365 -0.8407  0.5216  0.4494
  206EMC     C4 2340   1.324   0.678   1.318  0.2840 -1.0235  0.0975
  206EMC     H4 2341   1.143   0.768   1.396 -1.0135 -0.0501 -1.5785
  206EMC     H5 2342   1.290   0.859   1.425 -2.8110  1.6400  0.8039
  206EMC     H6 2343   1.314   0.622   1.411  0.0601 -2.0899 -0.5649
  206EMC     H7 2344   1.427   0.709   1.297 -0.1063 -0.4168 -0.9587
  206EMC     H8 2345   1.278   0.624   1.236 -1.5774  1.3541 -0.5449
  207EMC     C1 2346   3.105   3.323   3.155  0.2992 -0.2057  0.2406
  207EMC     C2 2347   3.462   3.090   3.248 -0.5006  0.1036 -0.0236
  207EMC     C3 2348   3.325   3.279   3.222 -0.4527 -0.4251 -0.0745
  207EMC     O1 2349   3.237   3.282   3.126 -0.3850  0.2185 -0.1137
  207EMC     O2 2350   3.397   3.179   3.167  0.4660 -0.6446  0.2080
  207EMC     O3 2351   3.306   3.320   3.338  0.0857 -0.7231 -0.4242
  207EMC     H1 2352   3.102   3.422   3.201  0.0893 -0.5627  1.0180
  207EMC     H2 2353   3.050   3.254   3.220  2.7396 -2.3812  0.1492
  207EMC     H3 2354   3.033   3.325   3.073  0.2028  1.3197  0.3342
  207EMC     C4 2355   3.534   2.990   3.151 -0.1895 -0.4872 -0.0151
  207EMC     H4 2356   3.393   3.039   3.315  0.5298 -1.6735 -0.2567
  207EMC     H5 2357   3.532   3.150   3.306 -0.6042 -0.0147  0.2214
  207EMC     H6 2358   3.468   2.931   3.087  3.2955 -1.4465 -3.0557
  207EMC     H7 2359   3.595   2.917   3.205  1.5662  1.0060  0.1227
  207EMC     H8 2360   3.593   3.040   3.074 -1.4033 -1.6276 -1.7696
  208EMC     C1 2361   1.888   3.101   0.128 -0.2769 -0.2135  0.2749
  208EMC     C2 2362   2.305   3.241   0.213  0.0341 -0.3346 -0.7848
  208EMC     C3 2363   2.070   3.217   0.218  0.0607 -0.7863  0.4793
  208EMC     O1 2364   2.013   3.098   0.187 -0.3618  0.5468  0.6711
  208EMC     O2 2365   2.192   3.168   0.247 -0.3564 -0.5713  0.2422
  208EMC     O3 2366   2.043   3.331   0.172 -0.5905  0.2385 -0.5517
  208EMC     H1 2367   1.902   3.152   0.032 -0.5555  1.2969  1.0087
  208EMC     H2 2368   1.799   3.146   0.172 -1.4455  1.0802 -3.0607
  208EMC     H3 2369   1.858   3.000   0.103 -2.2595  0.2221  0.7509
  208EMC     C4 2370   2.409   3.135   0.177 -0.2620 -0.1220  0.1570
  208EMC     H4 2371   2.340   3.300   0.298 -2.7779  1.3450 -0.6805
  208EMC     H5 2372   2.280   3.315   0.137  0.6161  0.8841  0.1644
  208EMC     H6 2373   2.502   3.178   0.140  1.3768 -3.4425  0.0402
  208EMC     H7 2374   2.358   3.070   0.107 -0.7702  0.2429  0.1813
  208EMC     H8 2375   2.438   3.079   0.266  0.4469  0.5934  0.3863
  209EMC     C1 2376   1.648   4.130   1.533  0.4230 -0.2446  0.4971
  209EMC     C2 2377   1.545   3.866   1.281  0.0787 -0.1956 -0.1448
  209EMC     C3 2378   1.690   3.908   1.456  0.2564  0.6006 -0.0750
  209EMC     O1 2379   1.620   3.994   1.533 -0.3019  0.2104  0.3563
  209EMC     O2 2380   1.571   3.889   1.415  0.1468  0.8132  0.5314
  209EMC     O3 2381   1.781   3.939   1.385 -0.0992 -0.3996 -0.0423
  209EMC     H1 2382   1.649   4.166   1.430 -1.8926 -1.0297  0.1518
  209EMC     H2 2383   1.733   4.152   1.599  1.6232  0.7311 -1.2939
  209EMC     H3 2384   1.562   4.172   1.585 -1.8136 -3.0870 -0.6388
  209EMC     C4 2385   1.410   3.786   1.263  0.1176 -0.1828 -0.7105
  209EMC     H4 2386   1.626   3.812   1.233 -0.1716  0.1112 -0.9244
  209EMC     H5 2387   1.566   3.958   1.226  1.6824 -1.0733 -1.0421
  209EMC     H6 2388   1.420   3.690   1.314  0.1908 -0.5527 -1.4041
  209EMC     H7 2389   1.399   3.769   1.156 -0.2907  2.8290 -1.2453
  209EMC     H8 2390   1.313   3.832   1.283  1.1875  2.1178 -0.5527
  210EMC     C1 2391   3.802   1.799   2.689 -0.2579 -0.3506 -0.9365
  210EMC     C2 2392   3.883   1.442   2.511  0.0897  0.1210  0.6292
  210EMC     C3 2393   3.742   1.563   2.659 -0.1027  0.6458  0.6110
  210EMC     O1 2394   3.746   1.694   2.608 -0.1898  0.3900 -0.5013
  210EMC     O2 2395   3.763   1.506   2.534 -0.3612  0.0823  0.7362
  210EMC     O3 2396   3.809   1.529   2.756  0.2620  0.7651  0.7979
  210EMC     H1 2397   3.803   1.899   2.645 -0.4541 -0.9009 -2.2445
  210EMC     H2 2398   3.907   1.777   2.709  0.5315  1.3793 -2.7707
  210EMC     H3 2399   3.745   1.819   2.780 -0.4522 -1.7532 -0.7343
  210EMC     C4 2400   3.898   1.409   2.361 -0.0180 -0.2418 -0.1096
  210EMC     H4 2401   3.894   1.356   2.576 -2.1696 -0.9674 -0.3165
  210EMC     H5 2402   3.962   1.511   2.540  1.5818  0.2060 -3.0709
  210EMC     H6 2403   3.974   1.333   2.343 -0.5154 -0.6095 -0.7099
  210EMC     H7 2404   3.917   1.503   2.310 -0.2429  1.7026  3.1132
  210EMC     H8 2405   3.800   1.366   2.338  0.2376 -0.4615 -0.8181
  211EMC     C1 2406   1.138   1.326   0.661  0.0239  0.0646 -1.0814
  211EMC     C2 2407   1.412   1.285   0.377  0.7211  0.0968  0.1014
  211EMC     C3 2408   1.309   1.434   0.532 -0.6106  0.2324 -0.2884
  211EMC     O1 2409   1.191   1.381   0.541  0.3559  0.0381  0.7803
  211EMC     O2 2410   1.310   1.380   0.416 -0.2667  0.1558  0.3826
  211EMC     O3 2411   1.407   1.417   0.612 -0.4031 -0.5983  0.2888
  211EMC     H1 2412   1.168   1.222   0.677 -2.3353 -1.1762 -3.7618
  211EMC     H2 2413   1.029   1.321   0.658 -0.0153  0.6755 -0.8339
  211EMC     H3 2414   1.164   1.391   0.745  0.5701  1.4719 -2.2984
  211EMC     C4 2415   1.406   1.227   0.234  1.0110 -0.1682 -0.6517
  211EMC     H4 2416   1.410   1.202   0.448 -0.1459  1.9564  2.4071
  211EMC     H5 2417   1.505   1.343   0.383  2.0730 -1.9367 -0.0124
  211EMC     H6 2418   1.317   1.167   0.213  1.3267 -0.0169 -2.5862
  211EMC     H7 2419   1.489   1.159   0.213 -0.6063 -2.7775  0.8293
  211EMC     H8 2420   1.399   1.299   0.152 -0.7204 -1.1312 -1.4177
  212EMC     C1 2421   1.709   2.416   1.622 -0.1204  0.1372 -0.9190
  212EMC     C2 2422   1.527   2.724   1.488 -0.0413 -0.1413 -0.0576
  212EMC     C3 2423   1.757   2.641   1.552  0.9352  0.1715 -0.4345
  212EMC     O1 2424   1.753   2.504   1.526 -0.1353 -0.0762  0.2162
  212EMC     O2 2425   1.636   2.639   1.459 -0.1963 -0.1965 -0.7502
  212EMC     O3 2426   1.749   2.683   1.667 -0.0232  0.1639  0.4293
  212EMC     H1 2427   1.787   2.407   1.698 -1.2255  0.9776  0.3734
  212EMC     H2 2428   1.679   2.324   1.574 -1.8040 -0.9431  1.9644
  212EMC     H3 2429   1.616   2.440   1.674  0.5228 -0.8487  0.7911
  212EMC     C4 2430   1.402   2.665   1.421  0.6954 -0.0471 -0.6423
  212EMC     H4 2431   1.538   2.821   1.441 -0.0509  0.5788  1.3680
  212EMC     H5 2432   1.518   2.746   1.594 -2.9554  0.6146 -0.3712
  212EMC     H6 2433   1.388   2.561   1.452 -1.4678  0.9503  2.2259
  212EMC     H7 2434   1.402   2.666   1.312 -2.0740  2.3379 -0.7492
  212EMC     H8 2435   1.316   2.723   1.455  0.8985 -0.1290  0.0205
  213EMC     C1 2436   0.550   2.455   2.361  0.1233 -0.3017 -0.3769
  213EMC     C2 2437   0.979   2.397   2.167  0.4400  0.2748  0.5239
  213EMC     C3 2438   0.787   2.419   2.316  0.6442 -0.7912  0.4512
  213EMC     O1 2439   0.686   2.507   2.336  0.6010  0.4091 -0.7339
  213EMC     O2 2440   0.877   2.479   2.238 -0.4012 -0.2476 -0.0562
  213EMC     O3 2441   0.760   2.301   2.318  0.4192 -0.3009  0.5711
  213EMC     H1 2442   0.518   2.360   2.319 -2.1300  0.7887 -1.3322
  213EMC     H2 2443   0.471   2.524   2.330 -0.3023  0.3522  1.9582
  213EMC     H3 2444   0.532   2.442   2.467  2.4474 -0.4210  0.0550
  213EMC     C4 2445   1.084   2.484   2.108  0.1719  0.7644 -0.3182
  213EMC     H4 2446   0.925   2.351   2.085  0.0451  0.0790  0.8876
  213EMC     H5 2447   1.013   2.311   2.225  1.1526 -0.9083 -1.5657
  213EMC     H6 2448   1.023   2.559   2.056 -0.9411  0.1396  0.0594
  213EMC     H7 2449   1.151   2.430   2.041 -1.2336  1.0313 -2.0420
  213EMC     H8 2450   1.137   2.536   2.188  0.2302  0.8621 -0.4179
  214EMC     C1 2451   3.081   0.265   1.172 -0.1595 -0.5304 -0.1765
  214EMC     C2 2452   2.811   4.493   1.089  0.1757  0.1845 -0.1407
  214EMC     C3 2453   2.912   0.197   1.031  0.9774 -0.3984  0.1406
  214EMC     O1 2454   3.027   0.177   1.083  0.3191  0.5041  0.1184
  214EMC     O2 2455   2.923   0.063   1.051  0.1467 -0.0443 -1.0054
  214EMC     O3 2456   2.820   0.267   1.078  0.4981  0.1442  0.2157
  214EMC     H1 2457   3.188   0.247   1.166 -0.3622 -1.6139 -0.8477
  214EMC     H2 2458   3.036   0.253   1.271 -1.2456  1.9547 -0.2891
  214EMC     H3 2459   3.064   0.366   1.134 -0.3404 -0.6017 -0.2854
  214EMC     C4 2460   2.836   4.352   1.052  0.4317  0.1546 -0.1190
  214EMC     H4 2461   2.727   0.031   1.038  0.4250  1.0383  0.2325
  214EMC     H5 2462   2.784   4.495   1.194  0.7015 -1.5147  0.0591
  214EMC     H6 2463   2.750   4.291   1.080  0.1137  1.4624  1.9654
  214EMC     H7 2464   2.923   4.312   1.103  0.0530  0.0741  0.4757
  214EMC     H8 2465   2.829   4.339   0.944  0.4681  3.5538 -0.6490
  215EMC     C1 2466   3.141   1.240   2.136 -0.2827 -0.0702  0.2456
  215EMC     C2 2467   2.774   1.309   1.889 -0.0336  0.4037  0.3546
  215EMC     C3 2468   2.973   1.213   1.974  0.4191 -0.6211 -0.2773
  215EMC     O1 2469   3.006   1.229   2.105 -0.5924  0.0355 -0.1485
  215EMC     O2 2470   2.854   1.262   2.000 -0.6365 -0.5541  0.4707
  215EMC     O3 2471   3.037   1.259   1.878 -0.0581 -0.0856 -0.4941
  215EMC     H1 2472   3.170   1.193   2.230 -0.4238 -0.0994  0.2736
  215EMC     H2 2473   3.168   1.346   2.138  2.6776 -0.7307 -0.1021
  215EMC     H3 2474   3.204   1.193   2.061  0.4055  2.0448 -0.5981
  215EMC     C4 2475   2.666   1.395   1.947 -0.7335 -0.3238 -0.0363
  215EMC     H4 2476   2.744   1.222   1.830  1.6202 -0.0229  0.0719
  215EMC     H5 2477   2.831   1.368   1.817 -0.9024  1.3311  0.4118
  215EMC     H6 2478   2.698   1.470   2.020  1.9592  0.3975 -1.8110
  215EMC     H7 2479   2.602   1.319   1.991  1.2961 -0.5083  2.8717
  215EMC     H8 2480   2.600   1.456   1.885  0.6521  0.9962 -0.2700
  216EMC     C1 2481   1.915   3.437   4.438  0.4823 -0.7193 -0.1913
  216EMC     C2 2482   2.057   3.468   4.047 -0.5817 -0.2753  0.2147
  216EMC     C3 2483   1.871   3.421   4.204  0.8900 -0.3099  0.9109
  216EMC     O1 2484   1.890   3.493   4.310 -0.2943 -0.9721  0.1553
  216EMC     O2 2485   1.944   3.509   4.131 -0.5719  0.4102  0.0282
  216EMC     O3 2486   1.895   3.303   4.199 -0.4617  0.1233 -0.2663
  216EMC     H1 2487   1.887   3.506   0.008 -1.1457  1.4766 -2.4782
  216EMC     H2 2488   2.021   3.417   4.449  0.1841 -1.3734  2.0293
  216EMC     H3 2489   1.847   3.353   4.450 -0.6252  0.1766  0.0826
  216EMC     C4 2490   2.183   3.463   4.128  0.2568  0.2186  0.2870
  216EMC     H4 2491   2.057   3.527   3.955  0.8807  0.5405  0.7143
  216EMC     H5 2492   2.034   3.366   4.014 -2.9579  0.1271  0.4581
  216EMC     H6 2493   2.183   3.381   4.200  0.3050  0.0363  0.0813
  216EMC     H7 2494   2.211   3.557   4.175  1.1476  0.4132 -0.5939
  216EMC     H8 2495   2.267   3.427   4.069  0.0015 -1.6502  0.9818
  217EMC     C1 2496   0.083   0.253   3.188  0.7615 -0.5541 -0.0873
  217EMC     C2 2497   0.330   0.138   3.475 -0.3917 -0.0471  0.2670
  217EMC     C3 2498   0.248   0.320   3.349  0.1491  0.2685  0.0061
  217EMC     O1 2499   0.113   0.308   3.319 -0.6212 -0.0651 -0.4428
  217EMC     O2 2500   0.227   0.234   3.443  0.3351  0.4918 -0.1582
  217EMC     O3 2501   0.339   0.304   3.271 -0.1336 -0.7741  0.0466
  217EMC     H1 2502   0.146   0.167   3.164  0.7068 -0.2809 -1.2675
  217EMC     H2 2503   0.121   0.322   3.112  0.8182  0.1662  0.5818
  217EMC     H3 2504   4.486   0.234   3.180  0.6936  0.3016 -1.7013
  217EMC     C4 2505   0.272   0.056   3.590  0.0393 -0.1447  0.3663
  217EMC     H4 2506   0.418   0.191   3.510  0.0850  0.1532 -1.2042
  217EMC     H5 2507   0.344   0.081   3.384  2.1789  4.0195 -2.2002
  217EMC     H6 2508   0.334   4.490   3.638 -0.6360 -0.8267  0.1744
  217EMC     H7 2509   0.182   0.002   3.561  0.7784 -0.4902 -1.4770
  217EMC     H8 2510   0.259   0.116   3.680 -2.1157  1.7652 -1.1151
  218EMC     C1 2511   2.866   3.182   4.194 -0.1538 -0.3356 -0.4480
  218EMC     C2 2512   2.905   3.327   0.064  0.0283  0.3357 -0.1776
  218EMC     C3 2513   2.788   3.327   4.365  0.0933 -0.1692 -0.2580
  218EMC     O1 2514   2.876   3.303   4.267 -0.6537 -0.2145 -0.0960
  218EMC     O2 2515   2.904   3.351   4.434  0.1629 -0.0100  0.1026
  218EMC     O3 2516   2.696   3.252   4.395  0.1778  0.0174  0.5516
  218EMC     H1 2517   2.786   3.116   4.227 -1.0260  0.1917 -1.4406
  218EMC     H2 2518   2.962   3.129   4.195  0.8823  1.1015  4.8354
  218EMC     H3 2519   2.843   3.209   4.091  1.8574  2.7392 -0.2100
  218EMC     C4 2520   3.043   3.367   0.119 -0.2000 -0.1201 -0.1012
  218EMC     H4 2521   2.883   3.221   0.074 -1.5014  0.6325 -0.1407
  218EMC     H5 2522   2.825   3.382   0.115  0.3312  0.8543 -0.2571
  218EMC     H6 2523   3.127   3.361   0.050 -0.1118  1.9494 -0.2527
  218EMC     H7 2524   3.065   3.292   0.195 -2.2020 -1.1746 -0.5105
  218EMC     H8 2525   3.055   3.469   0.156  2.1025  0.1502 -1.3890
  219EMC     C1 2526   0.114   3.898   1.520 -0.6750  0.2658 -0.0174
  219EMC     C2 2527   0.241   4.100   1.172  0.4016 -1.2926  0.0353
  219EMC     C3 2528   0.171   3.902   1.286 -0.4480 -0.5069  0.6621
  219EMC     O1 2529   0.095   3.860   1.387  0.3882  0.3264  0.4619
  219EMC     O2 2530   0.225   4.027   1.295  0.0025  0.8058  0.2845
  219EMC     O3 2531   0.178   3.835   1.186 -0.2603 -0.3526  0.0393
  219EMC     H1 2532   0.169   3.991   1.528  0.7048 -0.5188 -0.0490
  219EMC     H2 2533   0.196   3.835   1.553  0.0167  1.4829  0.6283
  219EMC     H3 2534   0.028   3.922   1.583  0.3058  0.8966  1.1103
  219EMC     C4 2535   0.311   4.229   1.187 -0.2981 -0.0671  0.3614
  219EMC     H4 2536   0.138   4.119   1.142  0.1945 -0.0690  1.4073
  219EMC     H5 2537   0.280   4.050   1.084  0.0165  2.6983 -2.6612
  219EMC     H6 2538   0.290   4.286   1.096 -0.7692 -2.0113 -0.7966
  219EMC     H7 2539   0.418   4.216   1.201 -0.1604  0.6174 -0.0247
  219EMC     H8 2540   0.272   4.292   1.268 -0.3001 -1.1718  1.2394
  220EMC     C1 2541   2.701   3.635   0.207  0.0727 -0.4919 -0.3710
  220EMC     C2 2542   2.432   3.808   4.483 -0.0864 -0.3668 -0.3492
  220EMC     C3 2543   2.556   3.614   0.012 -0.1791  0.4813  0.0158
  220EMC     O1 2544   2.593   3.577   0.135 -0.6546  1.0919 -0.8199
  220EMC     O2 2545   2.453   3.696   0.045 -0.4698  0.4329  0.6599
  220EMC     O3 2546   2.646   3.630   4.440  0.4858 -0.5610 -0.2222
  220EMC     H1 2547   2.709   3.587   0.305 -0.4952 -0.0581 -0.1058
  220EMC     H2 2548   2.681   3.739   0.235  1.4983 -0.5314  0.9388
  220EMC     H3 2549   2.800   3.625   0.164 -0.1594 -0.2734 -0.9627
  220EMC     C4 2550   2.284   3.838   4.485  0.2835 -0.1766 -0.0310
  220EMC     H4 2551   2.481   3.799   4.386  1.3072  2.5637 -0.0118
  220EMC     H5 2552   2.484   3.893   0.017 -0.9860  0.3730 -0.6851
  220EMC     H6 2553   2.217   3.753   4.489 -0.8390  0.6728  3.8582
  220EMC     H7 2554   2.240   3.888   4.399  0.6640 -1.0667 -0.7462
  220EMC     H8 2555   2.261   3.896   0.065 -2.3417 -0.7733 -0.2407
  221EMC     C1 2556   0.738   4.452   0.797 -0.8908  0.6807 -0.1186
  221EMC     C2 2557   0.919   0.217   0.655 -0.0885  0.9920 -0.5199
  221EMC     C3 2558   0.971   4.502   0.744  0.6076 -0.0806  0.3289
  221EMC     O1 2559   0.874   4.506   0.834  0.5282  0.4889  0.7087
  221EMC     O2 2560   0.938   0.124   0.757  0.0380  0.1472 -0.0609
  221EMC     O3 2561   0.961   4.438   0.636  0.5213  0.0605 -0.2122
  221EMC     H1 2562   0.746   4.356   0.746  0.0284  0.0486  1.1619
  221EMC     H2 2563   0.702   0.016   0.726  1.1180 -1.0961 -3.2509
  221EMC     H3 2564   0.681   4.436   0.889  1.2807  0.4542  1.2881
  221EMC     C4 2565   0.775   0.233   0.605 -0.2533 -0.2070 -0.0905
  221EMC     H4 2566   0.986   0.186   0.575 -1.5441 -0.0430 -1.3823
  221EMC     H5 2567   0.957   0.312   0.691  1.8438  0.1928 -0.3676
  221EMC     H6 2568   0.708   0.272   0.682  0.6385 -0.4675  0.8268
  221EMC     H7 2569   0.735   0.139   0.568  0.4435 -0.1657 -0.9964
  221EMC     H8 2570   0.761   0.299   0.519  1.7756  0.7545  0.2615
  222EMC     C1 2571   4.028   2.555   1.913 -0.4253 -0.6234  0.2905
  222EMC     C2 2572   4.072   2.314   2.195  0.6206 -0.1608 -0.9613
  222EMC     C3 2573   4.058   2.549   2.158 -0.6090  0.4505 -1.2081
  222EMC     O1 2574   3.981   2.518   2.041  0.1934 -0.8723 -0.0751
  222EMC     O2 2575   4.001   2.429   2.174  0.2465  0.0654  0.2830
  222EMC     O3 2576   4.178   2.575   2.159  0.0135  0.4591  0.0007
  222EMC     H1 2577   4.116   2.500   1.877 -1.0198 -1.8659  0.6720
  222EMC     H2 2578   4.053   2.661   1.911 -1.9323 -0.2441  0.8720
  222EMC     H3 2579   3.947   2.535   1.843  0.0754 -0.5283 -0.3243
  222EMC     C4 2580   3.998   2.194   2.135  0.5388  0.3933 -0.2450
  222EMC     H4 2581   4.100   2.310   2.300 -1.3803  2.3556 -0.2291
  222EMC     H5 2582   4.159   2.314   2.129  1.1396  2.4408 -0.3956
  222EMC     H6 2583   3.917   2.164   2.202  1.5326  0.2156  0.9209
  222EMC     H7 2584   4.071   2.112   2.143  3.0328  2.4928 -0.1134
  222EMC     H8 2585   3.957   2.210   2.036  0.3148  2.4103  0.1322
  223EMC     C1 2586   2.834   0.556   3.936 -0.2900 -0.4791  0.3310
  223EMC     C2 2587   2.782   0.894   3.859 -0.2226 -0.0743  0.6893
  223EMC     C3 2588   2.896   0.710   3.766 -0.4261  0.4350 -0.2191
  223EMC     O1 2589   2.806   0.616   3.808  0.2145  0.2976  0.2932
  223EMC     O2 2590   2.784   0.774   3.781  0.9340 -0.6362 -0.7481
  223EMC     O3 2591   3.001   0.741   3.830  0.4764  0.4098  0.2544
  223EMC     H1 2592   2.908   0.483   3.901  0.5632  1.9640 -3.6881
  223EMC     H2 2593   2.747   0.499   3.966 -1.5778  1.2676  0.0453
  223EMC     H3 2594   2.862   0.610   4.026 -1.2710  2.5169 -1.0350
  223EMC     C4 2595   2.644   0.958   3.857 -0.1623  0.8603  0.4410
  223EMC     H4 2596   2.862   0.959   3.824 -0.5102 -0.2989 -0.3968
  223EMC     H5 2597   2.787   0.871   3.966 -2.0157 -0.6345  0.6904
  223EMC     H6 2598   2.623   0.948   3.750  0.8736 -0.0177  0.2962
  223EMC     H7 2599   2.645   1.060   3.893 -2.5195 -0.1477  3.7614
  223EMC     H8 2600   2.581   0.898   3.922 -1.1093 -3.2780 -3.7409
  224EMC     C1 2601   2.585   0.732   2.566  0.5792 -0.1236 -0.1992
  224EMC     C2 2602   2.780   0.373   2.451 -0.1404 -0.0165  0.2834
  224EMC     C3 2603   2.631   0.505   2.570  0.4885  0.1450 -0.2560
  224EMC     O1 2604   2.641   0.616   2.509 -0.6503  0.0129  0.0258
  224EMC     O2 2605   2.654   0.424   2.473 -0.1672 -0.7619  0.1717
  224EMC     O3 2606   2.538   0.484   2.654 -0.5887 -0.5282 -0.1992
  224EMC     H1 2607   2.620   0.824   2.518 -0.5736 -0.2583 -1.3443
  224EMC     H2 2608   2.613   0.735   2.672  0.9728 -1.3667 -0.2572
  224EMC     H3 2609   2.476   0.729   2.563  0.5691 -2.4426  0.6506
  224EMC     C4 2610   2.782   0.316   2.307 -0.5765 -0.1605 -0.5362
  224EMC     H4 2611   2.794   0.290   2.521  1.3477  0.8626  1.0870
  224EMC     H5 2612   2.870   0.429   2.477 -0.1848 -0.7976  2.3319
  224EMC     H6 2613   2.789   0.391   2.228 -0.9529 -0.2230 -0.6291
  224EMC     H7 2614   2.708   0.242   2.276 -2.6676  1.6503 -0.1224
  224EMC     H8 2615   2.883   0.278   2.290  0.2402  1.1562  1.1215
  225EMC     C1 2616   4.474   2.341   3.172 -0.4384 -0.0695 -0.5313
  225EMC     C2 2617   0.063   2.277   2.817 -0.5195 -0.1514  0.0521
  225EMC     C3 2618   0.133   2.389   3.013 -0.4657  0.2781 -0.2887
  225EMC     O1 2619   0.012   2.415   3.065  0.2600  0.3047  0.3120
  225EMC     O2 2620   0.058   2.389   2.902 -0.1211 -0.2424 -0.1396
  225EMC     O3 2621   0.210   2.297   3.042 -0.3112 -0.4164 -0.2247
  225EMC     H1 2622   4.483   2.232   3.168 -1.6175 -0.2834  1.4036
  225EMC     H2 2623   4.366   2.352   3.176 -0.3591  1.6341 -1.8926
  225EMC     H3 2624   4.509   2.366   3.272 -1.5760 -1.0504  0.1411
  225EMC     C4 2625   0.080   2.326   2.668  0.2818  0.3546  0.4452
  225EMC     H4 2626   4.475   2.230   2.828 -0.9954  0.5147 -1.2082
  225EMC     H5 2627   0.127   2.190   2.837 -0.4664 -0.1286 -0.0199
  225EMC     H6 2628   0.009   2.407   2.648  1.5824  1.7656  1.2821
  225EMC     H7 2629   0.068   2.241   2.601 -1.1694 -0.4464  1.6577
  225EMC     H8 2630   0.183   2.358   2.652  0.8481 -2.5425 -2.7360
  226EMC     C1 2631   2.691   1.998   0.063  0.1814 -0.0979  0.3495
  226EMC     C2 2632   2.681   2.298   0.264 -0.3521  1.3228 -0.0651
  226EMC     C3 2633   2.840   2.154   0.166  0.2309  0.0756  0.3087
  226EMC     O1 2634   2.766   2.122   0.060  0.0721  0.3447 -0.3812
  226EMC     O2 2635   2.777   2.267   0.165  0.7578 -0.1939  0.3893
  226EMC     O3 2636   2.843   2.081   0.269 -0.3800  0.2796  0.6935
  226EMC     H1 2637   2.745   1.921   0.117  1.8975 -0.3773 -1.6537
  226EMC     H2 2638   2.672   1.961   4.472 -0.2505  0.4387  0.2248
  226EMC     H3 2639   2.598   2.007   0.119  0.2743  1.7437  0.2678
  226EMC     C4 2640   2.637   2.443   0.233 -1.3205  0.2141 -0.0784
  226EMC     H4 2641   2.733   2.298   0.360  0.5661  1.3059 -0.5458
  226EMC     H5 2642   2.593   2.234   0.261  0.4029  0.2546  0.0395
  226EMC     H6 2643   2.579   2.435   0.141  0.9149 -0.4194 -1.5008
  226EMC     H7 2644   2.724   2.499   0.199  0.2965 -2.2314 -0.2308
  226EMC     H8 2645   2.578   2.504   0.302 -0.0406 -0.1263  1.3788
  227EMC     C1 2646   0.177   0.857   0.081  0.3081  0.3694  0.6270
  227EMC     C2 2647   0.480   0.630   4.355  0.8275 -0.2962 -0.4195
  227EMC     C3 2648   0.317   0.668   0.017  0.7301 -0.5387  0.5206
  227EMC     O1 2649   0.305   0.791   0.075  0.3090  0.6223 -0.1279
  227EMC     O2 2650   0.425   0.705   4.469 -0.1627  0.6873 -0.4741
  227EMC     O3 2651   0.222   0.610   4.476 -0.6476  1.0969  0.4034
  227EMC     H1 2652   0.205   0.962   0.096  2.3796 -0.1910  0.9621
  227EMC     H2 2653   0.113   0.810   0.154 -1.5915  1.5053 -0.2354
  227EMC     H3 2654   0.121   0.845   4.498 -0.7648  0.4796  1.2505
  227EMC     C4 2655   0.584   0.533   4.417  1.2150  0.7838 -0.6808
  227EMC     H4 2656   0.537   0.698   4.292  0.2432  1.0135  0.4320
  227EMC     H5 2657   0.401   0.572   4.308  0.9587 -3.1590  2.5760
  227EMC     H6 2658   0.642   0.489   4.335  0.1641 -2.4874  0.2003
  227EMC     H7 2659   0.531   0.454   4.470 -0.8374  2.5899  0.1094
  227EMC     H8 2660   0.651   0.576   4.492 -3.1977  2.0265  3.0037
  228EMC     C1 2661   0.953   3.176   1.536 -0.8115  0.1508  0.4437
  228EMC     C2 2662   0.983   3.486   1.800  0.1016  0.2640 -0.2192
  228EMC     C3 2663   1.058   3.375   1.604  0.5846 -0.0398 -0.0495
  228EMC     O1 2664   0.959   3.316   1.535 -0.3240 -0.1958  0.4420
  228EMC     O2 2665   0.995   3.481   1.662  0.1861  0.4620  0.8529
  228EMC     O3 2666   1.132   3.305   1.668 -0.4751  0.2620 -0.7118
  228EMC     H1 2667   0.866   3.140   1.480 -1.1307  3.7776 -1.6805
  228EMC     H2 2668   0.948   3.147   1.641  1.5553 -0.6231  0.4059
  228EMC     H3 2669   1.046   3.139   1.493 -0.4756  0.5292  0.8471
  228EMC     C4 2670   0.927   3.618   1.841 -0.7678 -0.6080  0.4538
  228EMC     H4 2671   1.080   3.468   1.847 -0.0152 -1.6115 -0.6179
  228EMC     H5 2672   0.921   3.410   1.846  0.4309  2.1687  3.7971
  228EMC     H6 2673   0.899   3.622   1.946  0.1493 -2.3698  0.7947
  228EMC     H7 2674   0.848   3.641   1.769  0.2877 -1.5695 -1.0764
  228EMC     H8 2675   0.996   3.701   1.830 -2.3725  1.0750  2.3381
  229EMC     C1 2676   3.146   0.515   0.798 -0.6959 -0.3061  0.0906
  229EMC     C2 2677   2.866   0.249   0.626  1.0792 -0.4947  0.0303
  229EMC     C3 2678   2.940   0.461   0.696  0.8385  0.0757 -0.0589
  229EMC     O1 2679   3.009   0.478   0.806  0.0572  0.2734 -0.3359
  229EMC     O2 2680   2.895   0.345   0.726 -0.0039 -0.2452 -0.4280
  229EMC     O3 2681   2.993   0.487   0.584 -0.4904  0.3035 -0.3943
  229EMC     H1 2682   3.195   0.426   0.759 -0.4538 -1.0181  1.9465
  229EMC     H2 2683   3.182   0.530   0.899 -0.4234  1.8444 -0.2700
  229EMC     H3 2684   3.168   0.594   0.726  0.4153  0.3110  1.0964
  229EMC     C4 2685   2.837   0.113   0.687 -0.7407 -0.4282  0.4795
  229EMC     H4 2686   2.944   0.256   0.550  1.4285 -1.2618  0.3168
  229EMC     H5 2687   2.781   0.293   0.572  0.8441  0.0573  0.8227
  229EMC     H6 2688   2.846   0.038   0.608 -0.1207 -1.6466  1.6726
  229EMC     H7 2689   2.736   0.105   0.727 -1.4169 -0.4009 -1.1384
  229EMC     H8 2690   2.905   0.079   0.764 -1.6527 -0.3303  1.3577
  230EMC     C1 2691   3.644   1.167   4.076 -1.0275  0.4199  0.1231
  230EMC     C2 2692   3.857   1.278   4.381 -0.1479  0.1086  0.7052
  230EMC     C3 2693   3.861   1.166   4.171  0.3897  0.2359 -1.2469
  230EMC     O1 2694   3.773   1.227   4.089 -0.2205  0.1380  0.0814
  230EMC     O2 2695   3.834   1.282   4.234  0.4828 -0.1376  0.0487
  230EMC     O3 2696   3.848   1.058   4.225 -0.0222 -0.6481 -0.1627
  230EMC     H1 2697   3.599   1.201   3.982 -0.4328 -1.3353 -0.8268
  230EMC     H2 2698   3.576   1.206   4.152 -1.6583  0.4146 -0.4264
  230EMC     H3 2699   3.638   1.059   4.081 -0.5174  0.4131  0.6124
  230EMC     C4 2700   3.898   1.420   4.427  0.2602 -0.0882  0.0791
  230EMC     H4 2701   3.936   1.206   4.401  0.2293  0.3286  0.0544
  230EMC     H5 2702   3.767   1.233   4.421 -0.7925  1.9511  1.4480
  230EMC     H6 2703   3.835   1.492   4.374  2.6364  0.1236 -2.7581
  230EMC     H7 2704   4.005   1.441   4.419  0.1930  0.3849  0.3280
  230EMC     H8 2705   3.875   1.409   0.023 -0.2127  0.3918  0.0308
  231EMC     C1 2706   3.738   3.570   0.403 -0.5338 -0.0719  0.5489
  231EMC     C2 2707   3.984   3.642   0.111 -0.0064 -0.6973  0.7844
  231EMC     C3 2708   3.760   3.670   0.191 -0.1886  0.2542  0.4264
  231EMC     O1 2709   3.749   3.560   0.263  0.1806  0.1656  0.0656
  231EMC     O2 2710   3.852   3.592   0.133  0.4800  0.4171 -0.2670
  231EMC     O3 2711   3.784   3.786   0.236 -0.8651  0.6768 -0.3048
  231EMC     H1 2712   3.719   3.475   0.453 -1.6442  1.5187  3.3884
  231EMC     H2 2713   3.654   3.630   0.439  0.2626  0.5331  1.4453
  231EMC     H3 2714   3.829   3.604   0.452 -2.1449  3.2424  1.5403
  231EMC     C4 2715   3.990   3.761   0.013  0.4919 -0.0822 -0.2523
  231EMC     H4 2716   4.033   3.554   0.070  1.0214 -0.3984  1.3387
  231EMC     H5 2717   4.023   3.675   0.207 -2.2530  0.5444  1.3422
  231EMC     H6 2718   3.957   3.724   4.425 -1.0893  0.8837 -0.1244
  231EMC     H7 2719   4.087   3.810   0.007  0.7164 -0.1330  2.1215
  231EMC     H8 2720   3.920   3.840   0.042  1.4594  0.3856  0.8649
  232EMC     C1 2721   0.917   4.317   1.165 -0.7912  0.3971  0.3361
  232EMC     C2 2722   1.189   4.213   1.429 -0.0735 -0.5201 -0.3337
  232EMC     C3 2723   1.036   4.384   1.369 -0.0399 -0.0943 -0.4112
  232EMC     O1 2724   1.036   4.348   1.238  0.0284  0.2986 -0.5810
  232EMC     O2 2725   1.147   4.319   1.343 -0.5607  0.2428  0.1514
  232EMC     O3 2726   0.951   4.344   1.452  0.0143  0.2569  0.6036
  232EMC     H1 2727   0.913   4.211   1.143  1.4108  0.2974  0.2494
  232EMC     H2 2728   0.934   4.360   1.066 -0.1141  0.1582  0.3431
  232EMC     H3 2729   0.823   4.352   1.208 -0.2202  0.3399  1.6822
  232EMC     C4 2730   1.272   4.111   1.352 -0.2422 -0.3845 -0.4175
  232EMC     H4 2731   1.097   4.176   1.474 -1.2158  2.1252 -0.3287
  232EMC     H5 2732   1.241   4.254   1.515 -1.2277 -2.8093  1.5500
  232EMC     H6 2733   1.374   4.142   1.331 -0.6737  1.7722  0.3720
  232EMC     H7 2734   1.222   4.087   1.258 -0.7768 -3.2632  0.5039
  232EMC     H8 2735   1.280   4.016   1.405 -0.1327  0.2182  0.6696
  233EMC     C1 2736   3.624   0.741   3.587 -0.4690  0.1707  0.6103
  233EMC     C2 2737   3.555   0.641   3.986 -0.4009 -0.1496 -0.0785
  233EMC     C3 2738   3.480   0.661   3.753  0.1230 -0.4076 -0.7314
  233EMC     O1 2739   3.551   0.634   3.646  0.5856  0.1309  0.6928
  233EMC     O2 2740   3.535   0.586   3.849 -0.3308 -0.1235 -0.1803
  233EMC     O3 2741   3.426   0.770   3.773  0.0915 -0.6884  0.4079
  233EMC     H1 2742   3.662   0.800   3.671  0.0545 -1.4925  1.5998
  233EMC     H2 2743   3.571   0.807   3.518  3.2017 -0.0620 -2.7576
  233EMC     H3 2744   3.704   0.692   3.532  0.4649  0.5293  1.5973
  233EMC     C4 2745   3.579   0.527   4.087 -0.8899 -0.0651 -1.1031
  233EMC     H4 2746   3.465   0.694   4.018 -0.5049 -1.1270  1.3127
  233EMC     H5 2747   3.635   0.714   3.979 -1.8090  1.4618  0.0239
  233EMC     H6 2748   3.495   0.460   4.099 -1.1169  0.4660  0.6993
  233EMC     H7 2749   3.606   0.572   4.183 -1.0594 -0.2106 -0.9884
  233EMC     H8 2750   3.660   0.465   4.048 -1.0630  0.2827 -2.0313
  234EMC     C1 2751   2.217   3.620   0.247  0.8651 -0.0674  0.8293
  234EMC     C2 2752   1.823   3.615   0.282 -0.0703  0.6599  0.2828
  234EMC     C3 2753   2.023   3.753   0.236  0.0558  0.2949  0.0877
  234EMC     O1 2754   2.110   3.684   0.311  0.1827 -0.1255 -0.0816
  234EMC     O2 2755   1.942   3.690   0.325  0.0027  0.0153 -0.3745
  234EMC     O3 2756   2.017   3.748   0.114  0.1053  0.4447 -1.4322
  234EMC     H1 2757   2.186   3.564   0.159 -0.0330  2.0839 -0.3032
  234EMC     H2 2758   2.258   3.542   0.311 -1.1155 -1.7138  0.1963
  234EMC     H3 2759   2.303   3.680   0.218  0.3205  0.4837  0.3196
  234EMC     C4 2760   1.742   3.581   0.401  0.5686  0.0571 -0.6875
  234EMC     H4 2761   1.859   3.521   0.240  1.3886  0.5278  1.7364
  234EMC     H5 2762   1.759   3.666   0.210 -1.0363 -1.9341 -0.8093
  234EMC     H6 2763   1.648   3.530   0.384 -0.5747  1.4648  1.0826
  234EMC     H7 2764   1.716   3.669   0.460 -1.3269 -0.2240 -1.0425
  234EMC     H8 2765   1.785   3.508   0.470 -1.5914  1.1368  1.9727
  235EMC     C1 2766   4.053   0.727   2.642 -0.6051 -0.0751  0.0593
  235EMC     C2 2767   4.289   0.615   2.983  0.0732  0.8313 -0.9267
  235EMC     C3 2768   4.094   0.615   2.845  1.1318 -0.2466 -1.1476
  235EMC     O1 2769   4.123   0.624   2.720  0.4219 -0.1343 -0.1157
  235EMC     O2 2770   4.215   0.567   2.871  0.1123 -0.0372  0.0235
  235EMC     O3 2771   4.032   0.697   2.917 -0.3728 -0.0261  0.1153
  235EMC     H1 2772   4.031   0.818   2.698 -1.1270  0.6923 -1.3581
  235EMC     H2 2773   3.953   0.700   2.607 -0.7855 -1.3062  1.3987
  235EMC     H3 2774   4.121   0.759   2.563 -1.8990  1.1264 -0.6095
  235EMC     C4 2775   4.400   0.509   3.014 -0.5002 -0.0847 -0.4026
  235EMC     H4 2776   4.218   0.620   3.066  0.4867  0.1492 -0.5150
  235EMC     H5 2777   4.323   0.716   2.961  0.7287  0.2726 -2.6105
  235EMC     H6 2778   4.374   0.419   3.071  0.4146  0.3704  0.7589
  235EMC     H7 2779   4.484   0.550   3.070 -0.5001 -4.0192  2.9804
  235EMC     H8 2780   4.449   0.483   2.920 -1.1925 -2.1079 -0.2560
  236EMC     C1 2781   4.002   2.573   3.358 -0.0819 -0.0022  0.0931
  236EMC     C2 2782   3.970   2.706   2.967  0.5494 -0.4346  0.0676
  236EMC     C3 2783   4.062   2.551   3.118  0.6994 -0.5098 -0.2580
  236EMC     O1 2784   3.972   2.535   3.225 -0.2363 -0.7363 -0.2749
  236EMC     O2 2785   3.955   2.593   3.055  0.1834  0.3378  0.3718
  236EMC     O3 2786   4.160   2.616   3.143  1.0453 -0.1161  0.2879
  236EMC     H1 2787   3.920   2.564   3.430  0.5959 -0.5148  0.8181
  236EMC     H2 2788   4.027   2.678   3.339  0.0202 -0.1043 -0.3415
  236EMC     H3 2789   4.096   2.537   3.400  0.3504  1.5724  0.5602
  236EMC     C4 2790   3.846   2.707   2.869 -0.4264 -0.6008  0.2836
  236EMC     H4 2791   4.058   2.712   2.903  1.3854 -1.3368  1.0884
  236EMC     H5 2792   3.967   2.797   3.027  2.0141 -0.0991 -0.3278
  236EMC     H6 2793   3.861   2.761   2.775  0.0739 -0.3913  0.4812
  236EMC     H7 2794   3.762   2.751   2.924  0.9818 -0.6882  2.6259
  236EMC     H8 2795   3.808   2.610   2.837 -1.0809  0.2227 -1.5556
  237EMC     C1 2796   2.660   4.269   3.918 -0.8182  0.4536  1.4052
  237EMC     C2 2797   3.069   4.309   3.944 -0.1034 -0.4558  0.3128
  237EMC     C3 2798   2.874   4.200   3.993 -0.0456 -0.7215 -0.1546
  237EMC     O1 2799   2.789   4.202   3.887 -0.2842  0.2778  0.3570
  237EMC     O2 2800   2.966   4.217   3.913 -1.1119 -0.0112 -0.5840
  237EMC     O3 2801   2.865   4.258   4.108  0.1676  0.3452  0.1149
  237EMC     H1 2802   2.676   4.375   3.938 -1.5087  1.0247 -0.7977
  237EMC     H2 2803   2.619   4.231   4.012 -2.3891  2.5148  1.6276
  237EMC     H3 2804   2.583   4.257   3.843  1.0358  1.0306 -0.7094
  237EMC     C4 2805   3.163   4.330   3.828  0.8411  0.7107 -0.4127
  237EMC     H4 2806   3.132   4.281   4.028 -1.6001 -1.3010  1.1823
  237EMC     H5 2807   3.036   4.409   3.968  0.2122 -0.0253 -0.9540
  237EMC     H6 2808   3.210   4.238   3.794 -1.6247 -0.6491 -0.4232
  237EMC     H7 2809   3.252   4.391   3.842  0.3502  1.4455 -0.4561
  237EMC     H8 2810   3.119   4.382   3.743  0.6866 -1.5259 -1.7923
  238EMC     C1 2811   0.753   1.449   0.508 -0.2327  0.2381  0.4787
  238EMC     C2 2812   0.476   1.351   0.197  0.4803 -0.6318  0.6923
  238EMC     C3 2813   0.684   1.434   0.286  0.1875 -0.5724  0.0572
  238EMC     O1 2814   0.692   1.375   0.396 -0.1601  0.5278 -0.0780
  238EMC     O2 2815   0.595   1.336   0.279 -0.3825  1.0735 -0.1923
  238EMC     O3 2816   0.663   1.556   0.268 -0.1220 -0.0529 -0.7239
  238EMC     H1 2817   0.723   1.554   0.509  2.0012  0.9456  2.1926
  238EMC     H2 2818   0.860   1.469   0.500 -0.4876  1.4358 -0.1500
  238EMC     H3 2819   0.720   1.412   0.605 -0.1258 -0.2340  0.3370
  238EMC     C4 2820   0.379   1.246   0.244 -0.3273 -0.8772  0.5006
  238EMC     H4 2821   0.489   1.340   0.089 -2.0058 -3.2563  0.5547
  238EMC     H5 2822   0.439   1.453   0.208 -0.7337 -1.1891  1.8927
  238EMC     H6 2823   0.426   1.150   0.222  0.6495 -1.0746  3.0195
  238EMC     H7 2824   0.293   1.231   0.180  1.9795 -1.3110 -2.7469
  238EMC     H8 2825   0.355   1.238   0.350 -1.7488 -1.6707  0.1453
  239EMC     C1 2826   4.487   1.427   2.776  0.5521  0.9594  0.5189
  239EMC     C2 2827   0.427   1.420   2.911  0.4070  0.3977 -0.1176
  239EMC     C3 2828   0.213   1.453   2.812 -0.2557  0.7842 -0.6686
  239EMC     O1 2829   0.097   1.403   2.850  0.0007 -0.2128 -0.5878
  239EMC     O2 2830   0.287   1.430   2.923  0.2137 -0.6770  0.3591
  239EMC     O3 2831   0.262   1.465   2.701 -0.3226  0.0997  0.0533
  239EMC     H1 2832   4.494   1.523   2.724 -1.7348  0.8199 -0.1668
  239EMC     H2 2833   4.403   1.436   2.845  0.1013 -0.3648  0.1646
  239EMC     H3 2834   4.465   1.347   2.706  2.1802  1.2651 -0.3927
  239EMC     C4 2835   0.500   1.368   3.034 -0.6531  0.6101  0.1765
  239EMC     H4 2836   0.453   1.523   2.889 -2.5027  0.9771 -1.3680
  239EMC     H5 2837   0.451   1.351   2.829 -0.4597 -1.2220  0.9279
  239EMC     H6 2838   0.461   1.267   3.050 -2.3769  1.5997  2.6235
  239EMC     H7 2839   0.495   1.408   3.135  0.6876  0.7387  0.2119
  239EMC     H8 2840   0.605   1.346   3.013 -0.9035  0.0109 -0.5457
  240EMC     C1 2841   2.608   3.669   4.105  0.2206  0.1776  0.3067
  240EMC     C2 2842   2.653   3.888   3.788 -0.7675  0.1467  0.5279
  240EMC     C3 2843   2.704   3.879   4.029 -0.5559  0.5610  0.2078
  240EMC     O1 2844   2.706   3.746   4.024  0.2266  0.4173 -0.0047
  240EMC     O2 2845   2.722   3.842   3.904  0.5025 -0.1407  0.8546
  240EMC     O3 2846   2.611   3.943   4.071  0.0543  0.3339 -0.1453
  240EMC     H1 2847   2.515   3.723   4.124 -0.3761 -0.2352 -1.2965
  240EMC     H2 2848   2.658   3.635   4.196  0.2376 -1.5392 -0.3097
  240EMC     H3 2849   2.579   3.583   4.044  1.3229  0.8134 -1.1644
  240EMC     C4 2850   2.743   3.890   3.656 -0.6650  0.4068  0.3933
  240EMC     H4 2851   2.607   3.983   3.812 -1.4210 -0.1175  0.3571
  240EMC     H5 2852   2.564   3.828   3.767  0.1696 -1.1606  0.1549
  240EMC     H6 2853   2.687   3.922   3.568  1.3064 -1.0404 -1.4871
  240EMC     H7 2854   2.783   3.789   3.643 -0.9855  0.5168 -1.7562
  240EMC     H8 2855   2.828   3.956   3.678  1.0070 -1.0521 -1.3546
  241EMC     C1 2856   3.508   2.994   1.834 -0.0647 -0.6209 -1.0816
  241EMC     C2 2857   3.267   2.696   1.890  0.0230 -0.0110  0.0654
  241EMC     C3 2858   3.304   2.903   1.791  0.2179  0.3312 -0.5001
  241EMC     O1 2859   3.424   2.913   1.762  0.2531 -0.1821  0.5916
  241EMC     O2 2860   3.324   2.768   1.793  0.1429 -0.1841 -0.2500
  241EMC     O3 2861   3.239   2.959   1.887  0.0108  0.7191  0.0077
  241EMC     H1 2862   3.476   3.095   1.858  1.2616 -0.7297  1.5075
  241EMC     H2 2863   3.600   3.003   1.775 -0.2024  0.3247 -1.1664
  241EMC     H3 2864   3.542   2.949   1.927 -0.9544 -1.1834 -1.0196
  241EMC     C4 2865   3.346   2.559   1.906 -0.8505 -0.2283 -0.0420
  241EMC     H4 2866   3.163   2.669   1.868  0.3882 -0.5529 -1.0703
  241EMC     H5 2867   3.269   2.745   1.987  0.6566  1.3961 -0.6353
  241EMC     H6 2868   3.445   2.587   1.942  0.8011 -1.8999 -3.0009
  241EMC     H7 2869   3.367   2.496   1.820  1.0314  2.2233 -1.5128
  241EMC     H8 2870   3.292   2.505   1.984 -0.1727  2.6109  2.6063
  242EMC     C1 2871   0.274   0.262   2.239  0.1037 -0.5895 -0.0329
  242EMC     C2 2872   4.502   0.320   1.916 -0.4477  0.1565 -0.4247
  242EMC     C3 2873   0.061   0.307   2.140 -0.2439 -0.3217  0.1927
  242EMC     O1 2874   0.188   0.335   2.154 -0.6371 -0.2504  0.6776
  242EMC     O2 2875   0.025   0.382   2.037 -0.0846 -0.4568 -0.5882
  242EMC     O3 2876   0.012   0.197   2.162  0.1288  0.6928  0.0227
  242EMC     H1 2877   0.367   0.312   2.267  0.6143 -1.2139 -0.5537
  242EMC     H2 2878   0.314   0.173   2.189  0.0174 -0.3351 -0.5623
  242EMC     H3 2879   0.231   0.222   2.330 -1.1256  0.4263 -0.1424
  242EMC     C4 2880   4.493   0.416   1.793  0.0173 -1.3604 -0.2095
  242EMC     H4 2881   4.411   0.265   1.938  2.2821 -4.1612  1.4316
  242EMC     H5 2882   0.074   0.249   1.900 -0.5005  0.2799 -1.2961
  242EMC     H6 2883   0.078   0.462   1.768  0.3709 -2.4770 -1.0229
  242EMC     H7 2884   4.425   0.495   1.823  1.7354  1.0071 -2.1502
  242EMC     H8 2885   4.463   0.369   1.699  1.2194 -0.4411 -1.0829
  243EMC     C1 2886   1.038   1.243   0.277 -0.2258 -0.9552  0.2811
  243EMC     C2 2887   0.913   1.510   4.499 -0.3564 -0.4475 -0.5276
  243EMC     C3 2888   1.060   1.465   0.173 -0.0056 -0.0925  0.0890
  243EMC     O1 2889   0.995   1.384   0.258 -0.1835 -0.1958 -0.5551
  243EMC     O2 2890   0.937   1.502   0.126 -0.6034 -0.4467 -0.0431
  243EMC     O3 2891   1.163   1.427   0.123  0.1117  0.3282  0.5967
  243EMC     H1 2892   0.962   1.172   0.310 -1.8418  0.9147  0.7570
  243EMC     H2 2893   1.119   1.241   0.350  1.4017  0.8383 -1.3795
  243EMC     H3 2894   1.085   1.203   0.187  1.7560  0.0885  0.8032
  243EMC     C4 2895   0.771   1.533   4.462 -0.2255  0.2848  0.0947
  243EMC     H4 2896   0.951   1.422   4.448  0.7205  0.5001 -1.4157
  243EMC     H5 2897   0.981   1.588   4.466  1.4929 -0.6370  2.5005
  243EMC     H6 2898   0.708   1.461   0.004  1.2647 -0.6287  0.6852
  243EMC     H7 2899   0.769   1.517   4.354 -0.9877  1.7677 -0.1451
  243EMC     H8 2900   0.733   1.635   4.469  0.9530  0.9479 -2.1795
  244EMC     C1 2901   3.284   2.808   0.375 -0.5707 -0.7267 -0.0599
  244EMC     C2 2902   3.185   3.004   0.056  0.1544 -0.4869  0.3933
  244EMC     C3 2903   3.366   2.968   0.219  0.2456  0.5391 -0.1973
  244EMC     O1 2904   3.337   2.840   0.254 -0.4267 -0.1371  0.0255
  244EMC     O2 2905   3.306   2.935   0.105  0.7433  0.2969  0.2429
  244EMC     O3 2906   3.318   3.054   0.292 -0.0018 -0.5622 -0.1830
  244EMC     H1 2907   3.304   2.880   0.454 -1.4256 -0.2291 -0.2721
  244EMC     H2 2908   3.326   2.710   0.396 -0.9392 -1.6087 -2.9422
  244EMC     H3 2909   3.175   2.800   0.363 -0.9903  0.9367  2.0975
  244EMC     C4 2910   3.164   2.975   4.419  0.1731 -0.2190 -0.5136
  244EMC     H4 2911   3.205   3.110   0.071  2.8822 -0.6444 -1.4144
  244EMC     H5 2912   3.099   2.970   0.114 -0.3011  1.0296  0.6545
  244EMC     H6 2913   3.236   3.032   4.360  1.1571 -1.1532 -0.2468
  244EMC     H7 2914   3.065   3.010   4.391 -0.8627 -1.7213  1.1026
  244EMC     H8 2915   3.166   2.869   4.396 -0.4061 -0.8867  2.2111
  245EMC     C1 2916   2.350   0.442   3.806  0.6046 -0.1257 -0.7626
  245EMC     C2 2917   2.365   0.241   4.150  0.0205  0.5763  0.4580
  245EMC     C3 2918   2.477   0.372   3.997  0.1693 -0.0490  0.5817
  245EMC     O1 2919   2.417   0.340   3.878 -0.2824  0.0561  1.0817
  245EMC     O2 2920   2.380   0.291   4.018  0.2217  0.0562 -0.3815
  245EMC     O3 2921   2.483   0.485   4.048  0.3297  0.4076  0.4143
  245EMC     H1 2922   2.287   0.491   3.881  0.4712 -1.0622 -0.2573
  245EMC     H2 2923   2.297   0.393   3.724 -1.6660 -0.3752  0.7570
  245EMC     H3 2924   2.405   0.529   3.769  0.9814  0.2838  0.6799
  245EMC     C4 2925   2.271   0.113   4.138  0.6017  0.0722  0.5184
  245EMC     H4 2926   2.326   0.316   4.219 -0.6921  0.1449  0.5320
  245EMC     H5 2927   2.462   0.212   4.191  1.1947  3.8708  0.3332
  245EMC     H6 2928   2.318   0.050   4.063  0.9539 -0.2169  0.9750
  245EMC     H7 2929   2.172   0.145   4.106  1.6568  4.8654  1.2637
  245EMC     H8 2930   2.259   0.064   4.235  0.7927  0.6658  0.8498
  246EMC     C1 2931   0.031   2.770   1.337 -0.3612  0.5659  0.8329
  246EMC     C2 2932   0.007   2.974   0.957  0.1615  0.3044 -0.5258
  246EMC     C3 2933   4.447   2.929   1.193  0.5582  0.3231 -0.2087
  246EMC     O1 2934   0.049   2.874   1.246 -0.0070 -0.3167 -0.1329
  246EMC     O2 2935   0.019   2.997   1.102 -0.1567  0.4118  0.2074
  246EMC     O3 2936   4.355   2.857   1.153 -0.6566  0.4310  0.1710
  246EMC     H1 2937   4.488   2.684   1.295 -0.7603  0.7098  1.0320
  246EMC     H2 2938   4.485   2.791   1.428 -0.2064 -1.8325  1.5586
  246EMC     H3 2939   0.130   2.736   1.368 -0.9064 -0.9262  1.0204
  246EMC     C4 2940   0.149   2.935   0.916 -0.0198  0.3027  1.0136
  246EMC     H4 2941   4.479   3.054   0.893 -0.4263 -1.2785 -2.2065
  246EMC     H5 2942   4.449   2.892   0.937  0.9064 -0.8798  1.4943
  246EMC     H6 2943   0.216   3.020   0.929 -0.0282  0.2778  1.2312
  246EMC     H7 2944   0.137   2.898   0.815 -2.0489 -1.9644  1.9753
  246EMC     H8 2945   0.181   2.852   0.979  2.3580  1.4374  1.4283
  247EMC     C1 2946   0.700   0.674   1.482 -0.9030 -0.2475  0.1248
  247EMC     C2 2947   0.428   0.404   1.478 -0.6618  0.7645  0.1716
  247EMC     C3 2948   0.632   0.469   1.384  1.1475 -0.8557  0.3361
  247EMC     O1 2949   0.614   0.599   1.395  0.2342  0.0435 -0.7637
  247EMC     O2 2950   0.493   0.489   1.385 -0.0753 -0.1498 -0.9362
  247EMC     O3 2951   0.700   0.403   1.465  0.0670 -1.0866  0.6131
  247EMC     H1 2952   0.731   0.620   1.572  3.1079 -0.5729 -1.2256
  247EMC     H2 2953   0.668   0.776   1.504 -0.5770 -0.1073 -0.0486
  247EMC     H3 2954   0.793   0.685   1.426 -1.1889  0.9374 -0.1519
  247EMC     C4 2955   0.273   0.424   1.473 -0.4366  0.3017  0.5708
  247EMC     H4 2956   0.460   0.436   1.577  0.5700 -1.0184  0.3850
  247EMC     H5 2957   0.460   0.302   1.463 -0.6603  1.0250 -1.8401
  247EMC     H6 2958   0.213   0.372   1.549  0.5359 -1.8320 -0.0309
  247EMC     H7 2959   0.220   0.402   1.380 -1.0576 -0.8881  1.1767
  247EMC     H8 2960   0.261   0.532   1.485 -0.2956  0.3666  0.1107
  248EMC     C1 2961   0.956   4.092   0.662 -0.1320  0.6907  0.5641
  248EMC     C2 2962   1.238   4.012   0.956  0.0935  0.4809  0.3902
  248EMC     C3 2963   1.068   3.944   0.804 -0.4442  0.0933 -0.4380
  248EMC     O1 2964   1.061   4.005   0.687 -0.2676  0.4640 -0.5158
  248EMC     O2 2965   1.193   3.982   0.822 -1.1165  0.2988  0.9916
  248EMC     O3 2966   0.986   3.939   0.895  0.8981 -0.1501  0.6480
  248EMC     H1 2967   0.862   4.058   0.704  0.8698 -1.5108  1.1526
  248EMC     H2 2968   0.954   4.110   0.554  2.0865 -1.4440  0.0741
  248EMC     H3 2969   0.977   4.192   0.701  0.2533  1.6960 -1.9700
  248EMC     C4 2970   1.388   4.053   0.963  0.1100  0.0891  0.7615
  248EMC     H4 2971   1.197   3.939   1.026 -0.3731 -1.0639 -1.4014
  248EMC     H5 2972   1.194   4.106   0.988  3.6780  2.2792  0.5938
  248EMC     H6 2973   1.407   4.131   0.889 -1.9218 -0.3692 -0.3410
  248EMC     H7 2974   1.463   3.974   0.958  0.3640  0.3176  0.9726
  248EMC     H8 2975   1.400   4.095   1.063 -0.0945  1.3197  0.2893
  249EMC     C1 2976   2.825   2.873   2.562  0.0593 -0.5094 -0.0766
  249EMC     C2 2977   2.661   3.212   2.269 -0.0954  0.6173 -0.1296
  249EMC     C3 2978   2.719   3.014   2.391 -0.4249  0.2875 -0.0963
  249EMC     O1 2979   2.830   2.952   2.446 -0.0096 -0.0485  0.0225
  249EMC     O2 2980   2.757   3.111   2.302 -0.9374 -0.0014 -0.2537
  249EMC     O3 2981   2.607   2.997   2.421  0.1218  0.1775 -0.1285
  249EMC     H1 2982   2.770   2.927   2.639  1.3352  1.3424 -0.3948
  249EMC     H2 2983   2.925   2.840   2.591 -0.3982 -1.7994  0.1050
  249EMC     H3 2984   2.771   2.779   2.552 -1.1328  0.0691  0.6735
  249EMC     C4 2985   2.706   3.298   2.145  0.3501 -0.1592  0.0505
  249EMC     H4 2986   2.643   3.280   2.352 -0.7712 -1.5199  1.5311
  249EMC     H5 2987   2.565   3.165   2.249 -0.2494  1.5326 -1.8193
  249EMC     H6 2988   2.651   3.391   2.151 -1.5286 -1.1765 -0.6384
  249EMC     H7 2989   2.687   3.259   2.045 -1.2983 -2.3721  1.1328
  249EMC     H8 2990   2.813   3.322   2.150 -0.2268  2.6568  0.4278
  250EMC     C1 2991   0.808   2.186   3.492  0.5030 -0.3355 -0.2057
  250EMC     C2 2992   0.678   1.782   3.479 -0.3121  0.0519  0.4411
  250EMC     C3 2993   0.837   1.950   3.537  0.3674  0.1681  0.4983
  250EMC     O1 2994   0.826   2.050   3.441 -0.1669  0.5000  0.2704
  250EMC     O2 2995   0.777   1.876   3.439 -0.3786  0.3537  0.3167
  250EMC     O3 2996   0.800   1.954   3.657 -0.2696  0.1037  0.2124
  250EMC     H1 2997   0.871   2.206   3.578  1.0765 -2.9363  0.0779
  250EMC     H2 2998   0.709   2.199   3.536  0.8534 -0.3991  0.6112
  250EMC     H3 2999   0.821   2.266   3.419 -0.7478  0.2865  0.2161
  250EMC     C4 3000   0.632   1.700   3.365 -0.2029  0.1077 -0.0853
  250EMC     H4 3001   0.594   1.824   3.533 -2.8325 -1.3818 -2.1377
  250EMC     H5 3002   0.735   1.712   3.540 -0.7453 -1.2667 -0.6238
  250EMC     H6 3003   0.554   1.635   3.405 -1.0440  0.4806 -1.0548
  250EMC     H7 3004   0.719   1.645   3.331  0.1119 -1.4035  2.8729
  250EMC     H8 3005   0.582   1.756   3.285 -0.0814  0.3750  0.0257
  251EMC     C1 3006   3.476   1.281   4.417 -0.1679  0.6583 -0.6125
  251EMC     C2 3007   3.432   0.849   4.387 -0.5417 -0.8687 -0.6444
  251EMC     C3 3008   3.457   1.055   4.510  0.3069 -0.0067 -0.9013
  251EMC     O1 3009   3.518   1.145   4.439 -0.0607 -0.5526  0.7746
  251EMC     O2 3010   3.511   0.954   4.451 -0.5410  0.5867  0.1805
  251EMC     O3 3011   3.346   1.058   0.045 -0.6870 -0.1950  0.4862
  251EMC     H1 3012   3.563   1.347   4.409 -0.9690  1.7434 -0.5887
  251EMC     H2 3013   3.415   1.315   4.500  1.2804  2.8541 -0.3690
  251EMC     H3 3014   3.425   1.286   4.320  0.8120  0.4191 -1.1538
  251EMC     C4 3015   3.444   0.715   4.468  0.4619 -1.0868  0.1044
  251EMC     H4 3016   3.469   0.833   4.286  0.8487  1.5264 -0.5908
  251EMC     H5 3017   3.330   0.874   4.358 -0.2947  1.0539  0.0231
  251EMC     H6 3018   3.516   0.644   4.427  2.5134  1.3969 -0.8651
  251EMC     H7 3019   3.353   0.659   4.446  0.0517 -0.8033  1.0412
  251EMC     H8 3020   3.464   0.727   0.064  1.3292  0.0494 -0.1636
  252EMC     C1 3021   2.428   1.704   3.084  1.0801 -0.5851 -0.1130
  252EMC     C2 3022   2.464   2.040   2.914  0.3703  0.1255  1.0478
  252EMC     C3 3023   2.304   1.862   2.982  0.2010 -0.2341  0.0707
  252EMC     O1 3024   2.373   1.764   2.968 -0.2310  0.2336  0.0004
  252EMC     O2 3025   2.391   1.918   2.892  0.0063  0.2223 -0.7259
  252EMC     O3 3026   2.281   1.911   3.091 -0.2723 -0.0266  0.3935
  252EMC     H1 3027   2.468   1.769   3.162  1.0483  1.2381 -1.5479
  252EMC     H2 3028   2.525   1.666   3.052  1.3831  0.1558 -0.1028
  252EMC     H3 3029   2.370   1.628   3.136  1.1795  0.1466  1.1180
  252EMC     C4 3030   2.580   2.027   3.005  0.8690  0.5071 -0.2540
  252EMC     H4 3031   2.403   2.128   2.935 -0.2430 -0.3009  1.0907
  252EMC     H5 3032   2.505   2.056   2.815  1.9948 -1.4777  1.4010
  252EMC     H6 3033   2.559   1.979   3.100  0.7120 -1.7554 -1.3553
  252EMC     H7 3034   2.631   2.121   3.027  0.6361  0.4910  0.3474
  252EMC     H8 3035   2.645   1.948   2.967 -0.4152 -0.0421 -1.3814
  253EMC     C1 3036   1.213   0.659   1.912  0.1347 -0.3517 -0.2180
  253EMC     C2 3037   0.920   0.897   1.805  0.0505 -0.1398  0.2225
  253EMC     C3 3038   1.041   0.700   1.761 -0.0998  0.0981  0.2850
  253EMC     O1 3039   1.077   0.656   1.880 -0.1984  0.0622 -0.2941
  253EMC     O2 3040   0.947   0.762   1.827 -0.0030  0.2858  0.0112
  253EMC     O3 3041   1.116   0.756   1.679  0.0182 -0.0135  0.2275
  253EMC     H1 3042   1.222   0.639   2.019 -2.0841 -2.6741 -0.3825
  253EMC     H2 3043   1.267   0.752   1.897  0.2064 -0.7370 -2.7138
  253EMC     H3 3044   1.267   0.579   1.862 -1.0065 -0.4972 -1.2763
  253EMC     C4 3045   0.784   0.919   1.862  0.3763  0.1731  0.4535
  253EMC     H4 3046   0.911   0.925   1.700  0.5299  0.0955  0.2359
  253EMC     H5 3047   0.996   0.967   1.842  0.0869  2.4429 -4.1239
  253EMC     H6 3048   0.763   0.886   1.964 -0.9074 -0.5960 -0.0276
  253EMC     H7 3049   0.710   0.871   1.798  1.8375 -0.4416 -0.8383
  253EMC     H8 3050   0.767   1.026   1.859 -0.5175  0.0609 -3.0321
  254EMC     C1 3051   1.157   0.730   4.070 -0.0908 -0.4010 -0.5552
  254EMC     C2 3052   1.470   0.511   3.828  0.4702 -0.4932  0.1119
  254EMC     C3 3053   1.293   0.562   3.982 -0.5124  0.4146  0.0910
  254EMC     O1 3054   1.288   0.673   4.049  0.4701 -0.0231 -0.3770
  254EMC     O2 3055   1.421   0.582   3.941 -0.1702 -0.2411  0.7074
  254EMC     O3 3056   1.201   0.515   3.914  0.3513  0.7605  0.3626
  254EMC     H1 3057   1.080   0.665   4.113 -1.9444 -1.3419 -4.7965
  254EMC     H2 3058   1.124   0.767   3.973 -1.2770 -1.6692 -0.6596
  254EMC     H3 3059   1.173   0.811   4.141  2.3322 -0.0533 -1.3884
  254EMC     C4 3060   1.618   0.541   3.811  0.7757 -1.2010  0.4492
  254EMC     H4 3061   1.408   0.550   3.748 -1.7901  2.7640  3.1608
  254EMC     H5 3062   1.451   0.405   3.842 -0.0959 -1.0331 -3.7703
  254EMC     H6 3063   1.624   0.649   3.809 -1.0086 -1.0808 -0.0271
  254EMC     H7 3064   1.664   0.506   3.718  0.3726 -0.0452 -0.2011
  254EMC     H8 3065   1.673   0.504   3.897 -1.4858  0.8061  2.9149
  255EMC     C1 3066   3.331   0.518   1.189 -0.4810 -0.5006 -0.2172
  255EMC     C2 3067   3.472   0.139   1.164  0.0331  0.4195 -0.0341
  255EMC     C3 3068   3.497   0.360   1.130 -0.4331 -0.6666 -0.5536
  255EMC     O1 3069   3.386   0.389   1.188  0.3780 -0.7989 -0.1319
  255EMC     O2 3070   3.547   0.252   1.167 -0.5941  1.0332  0.1065
  255EMC     O3 3071   3.570   0.455   1.095 -0.4309  0.3668 -0.6089
  255EMC     H1 3072   3.397   0.604   1.201 -2.4693  1.0655  0.0896
  255EMC     H2 3073   3.263   0.521   1.275 -0.9608 -2.1970 -0.5042
  255EMC     H3 3074   3.275   0.524   1.096  2.2249  1.4870 -1.8650
  255EMC     C4 3075   3.555   0.031   1.225 -0.3972 -0.5704  0.3207
  255EMC     H4 3076   3.448   0.110   1.062 -0.2458 -2.1829  0.6940
  255EMC     H5 3077   3.382   0.149   1.225  0.0556 -2.6080  0.6609
  255EMC     H6 3078   3.641   0.023   1.158 -1.7165  2.0484 -1.9148
  255EMC     H7 3079   3.505   4.445   1.233 -0.1813 -0.7954 -0.7687
  255EMC     H8 3080   3.593   0.065   1.321 -1.3592  3.4297 -0.5264
  256EMC     C1 3081   3.499   1.583   0.557 -0.1805  0.2122  0.3509
  256EMC     C2 3082   3.825   1.594   0.777  0.7184  0.1774 -0.0876
  256EMC     C3 3083   3.691   1.462   0.628 -0.6264 -1.1139 -0.4348
  256EMC     O1 3084   3.635   1.554   0.553  0.2407 -0.0014 -0.7040
  256EMC     O2 3085   3.777   1.553   0.650 -0.1552 -0.2132 -0.6254
  256EMC     O3 3086   3.625   1.410   0.723  0.2442 -0.1422  0.5440
  256EMC     H1 3087   3.445   1.488   0.569  1.3139 -0.5231  1.5264
  256EMC     H2 3088   3.469   1.637   0.467 -1.3178 -1.0252 -0.0559
  256EMC     H3 3089   3.483   1.641   0.648  1.4107  1.5608 -0.1969
  256EMC     C4 3090   3.975   1.591   0.804  0.6806 -0.0617 -0.3606
  256EMC     H4 3091   3.786   1.542   0.864 -0.3851  0.1864 -0.5630
  256EMC     H5 3092   3.788   1.696   0.790 -0.4606 -0.4602  2.1025
  256EMC     H6 3093   4.012   1.604   0.905 -0.8874 -1.7053  0.4794
  256EMC     H7 3094   4.025   1.659   0.735  2.8987 -1.1978  0.0255
  256EMC     H8 3095   4.008   1.492   0.771 -1.0639 -0.0353 -2.4011
  257EMC     C1 3096   3.230   4.312   1.758 -0.0065  0.2594  0.3853
  257EMC     C2 3097   3.027   0.142   1.979 -0.1943 -1.1236  1.1134
  257EMC     C3 3098   3.070   4.424   1.898  0.6188  0.1572 -0.4773
  257EMC     O1 3099   3.143   4.415   1.783 -0.1271 -0.9436 -0.0341
  257EMC     O2 3100   3.048   0.051   1.870 -0.3213 -0.0447 -0.2823
  257EMC     O3 3101   3.105   4.382   2.008  0.1558  0.4070 -0.1614
  257EMC     H1 3102   3.241   4.234   1.834 -0.5809  0.0245  0.2362
  257EMC     H2 3103   3.334   4.340   1.742  0.3210 -1.2228 -0.1954
  257EMC     H3 3104   3.192   4.260   1.670  0.1042  0.6910  0.0831
  257EMC     C4 3105   2.920   0.244   1.931  0.5418  0.1615 -0.2136
  257EMC     H4 3106   3.122   0.195   1.985 -1.1287  0.7997  0.0367
  257EMC     H5 3107   2.990   0.095   2.069 -0.6959 -0.1471  1.4309
  257EMC     H6 3108   2.928   0.251   1.823  1.0562 -0.4929 -0.2272
  257EMC     H7 3109   2.941   0.346   1.965  3.5076  0.4018 -2.3041
  257EMC     H8 3110   2.823   0.198   1.949  0.8978 -0.8954 -0.9326
  258EMC     C1 3111   2.163   4.177   1.449  0.2628  0.5209  0.4608
  258EMC     C2 3112   2.026   4.378   1.185  0.4686  0.2670  0.7612
  258EMC     C3 3113   1.956   4.196   1.322 -0.7840 -0.0924 -0.0944
  258EMC     O1 3114   2.034   4.221   1.426  0.1534 -0.3956 -0.6376
  258EMC     O2 3115   1.964   4.325   1.304  0.2059 -0.2638 -0.1913
  258EMC     O3 3116   1.985   4.116   1.233  0.0084  0.3192  0.2701
  258EMC     H1 3117   2.230   4.261   1.462 -1.0058  1.8335 -1.0737
  258EMC     H2 3118   2.202   4.135   1.356 -0.0098 -1.3251  1.1228
  258EMC     H3 3119   2.170   4.096   1.522  1.6447  1.7616  1.7545
  258EMC     C4 3120   2.022   0.022   1.188 -0.4516 -1.3768 -0.1726
  258EMC     H4 3121   1.995   4.330   1.092  0.0228 -1.2408  1.6406
  258EMC     H5 3122   2.129   4.344   1.195  1.2535  2.1162 -0.5362
  258EMC     H6 3123   2.079   0.050   1.276 -1.1581  0.3594 -0.2229
  258EMC     H7 3124   1.921   0.063   1.189  0.4061  0.9423 -1.0258
  258EMC     H8 3125   2.065   0.072   1.101  1.3675 -1.5728  0.5621
  259EMC     C1 3126   1.545   3.785   3.195 -0.2339  0.0760 -0.5176
  259EMC     C2 3127   1.269   3.502   3.264  0.1237  0.0462  0.6674
  259EMC     C3 3128   1.313   3.713   3.165 -0.2777 -0.1349  0.4224
  259EMC     O1 3129   1.450   3.707   3.132  0.4768  0.7508  0.4893
  259EMC     O2 3130   1.331   3.582   3.159  0.2393  0.0304  0.3457
  259EMC     O3 3131   1.265   3.774   3.262 -0.2020  0.5392 -0.0489
  259EMC     H1 3132   1.574   3.858   3.119  2.8279  1.2394  1.5628
  259EMC     H2 3133   1.636   3.728   3.210  2.0899  3.2117 -1.5720
  259EMC     H3 3134   1.514   3.858   3.270 -0.1272  0.2972 -0.6872
  259EMC     C4 3135   1.328   3.359   3.261  0.4900 -0.7136  0.1829
  259EMC     H4 3136   1.160   3.510   3.261  0.1318  0.5075  1.3954
  259EMC     H5 3137   1.286   3.549   3.361 -2.8508 -1.0419  1.8425
  259EMC     H6 3138   1.257   3.293   3.309 -0.0016 -0.5860 -0.3560
  259EMC     H7 3139   1.419   3.330   3.313 -0.2794 -1.7290  1.0030
  259EMC     H8 3140   1.351   3.329   3.158 -1.7066  1.2205 -0.9678
  260EMC     C1 3141   0.926   4.115   2.115  0.1937 -0.2758  0.1894
  260EMC     C2 3142   1.082   4.473   2.238 -0.4430 -0.0601  1.1729
  260EMC     C3 3143   0.925   4.369   2.094  0.3673  0.2039  0.0609
  260EMC     O1 3144   0.945   4.253   2.172  0.3208  0.4407  0.2892
  260EMC     O2 3145   1.055   4.374   2.138 -0.4465  0.5503  0.1340
  260EMC     O3 3146   0.898   4.365   1.974  0.3627 -0.7335  0.2332
  260EMC     H1 3147   1.019   4.063   2.138  1.0442  1.5458  1.0263
  260EMC     H2 3148   0.879   4.120   2.017 -1.8393 -1.8673  1.0119
  260EMC     H3 3149   0.837   4.065   2.154 -0.5019 -0.0654 -1.0624
  260EMC     C4 3150   1.230   4.469   2.279  0.2063  0.1725 -0.4071
  260EMC     H4 3151   1.023   4.462   2.329  1.2020  0.4966  2.3583
  260EMC     H5 3152   1.050   0.059   2.197 -1.1328 -1.3691 -1.6105
  260EMC     H6 3153   1.301   4.481   2.197  1.9354 -0.6970  0.8951
  260EMC     H7 3154   1.258   4.372   2.320  1.1221  0.0550 -1.2733
  260EMC     H8 3155   1.254   0.039   2.348  2.2509  0.0162 -0.8819
  261EMC     C1 3156   0.300   3.233   2.757 -0.2247  0.0658  0.3477
  261EMC     C2 3157   0.052   3.514   2.581  0.4684  0.0328 -0.0152
  261EMC     C3 3158   0.242   3.461   2.731  0.1913 -0.1790 -0.4113
  261EMC     O1 3159   0.238   3.349   2.803  0.2410  0.4368 -0.2248
  261EMC     O2 3160   0.109   3.484   2.704 -0.3829  0.3125  0.8745
  261EMC     O3 3161   0.333   3.479   2.647  0.8557 -0.2264  0.6244
  261EMC     H1 3162   0.408   3.240   2.761 -0.1378 -0.8545  0.0569
  261EMC     H2 3163   0.278   3.212   2.652  0.5080 -3.2665  0.7222
  261EMC     H3 3164   0.275   3.152   2.826  0.9162 -1.4353 -0.9122
  261EMC     C4 3165   4.421   3.570   2.601  0.5224  0.0319 -0.1076
  261EMC     H4 3166   0.040   3.419   2.529 -0.4861 -0.2390  0.6762
  261EMC     H5 3167   0.111   3.578   2.515 -0.2616  0.9273  0.1666
  261EMC     H6 3168   4.421   3.643   2.520  0.0093 -0.3360 -0.4410
  261EMC     H7 3169   4.421   3.627   2.695 -1.0521 -0.0545 -0.0281
  261EMC     H8 3170   4.344   3.493   2.602  1.1485 -0.6079 -0.8541
  262EMC     C1 3171   1.541   0.746   1.639 -0.1639 -0.6839 -0.1317
  262EMC     C2 3172   1.660   0.978   1.978  0.8425 -0.2092 -0.1290
  262EMC     C3 3173   1.646   0.930   1.741 -0.2337 -0.0132  0.4270
  262EMC     O1 3174   1.552   0.886   1.655  0.3637  0.1719  0.3159
  262EMC     O2 3175   1.589   0.933   1.866 -0.3075  0.4106  0.7046
  262EMC     O3 3176   1.765   0.898   1.735 -0.5110  0.3993 -0.0127
  262EMC     H1 3177   1.512   0.726   1.536  2.2846  0.8866 -1.2369
  262EMC     H2 3178   1.474   0.714   1.719 -1.0274  2.2174  0.4144
  262EMC     H3 3179   1.640   0.700   1.633 -0.8003 -1.9763 -1.6445
  262EMC     C4 3180   1.566   0.968   2.098 -0.5575  0.7502 -0.4900
  262EMC     H4 3181   1.672   1.084   1.960 -0.6189 -0.3728 -2.3471
  262EMC     H5 3182   1.751   0.918   1.991 -0.0092 -1.7063 -0.8390
  262EMC     H6 3183   1.496   1.051   2.103 -0.5508  0.8989 -2.2583
  262EMC     H7 3184   1.626   0.972   2.189 -0.6733  0.1635 -0.3890
  262EMC     H8 3185   1.524   0.869   2.108  2.4423 -0.6382 -0.5345
  263EMC     C1 3186   1.628   1.367   4.478 -0.3769 -0.0433 -0.2811
  263EMC     C2 3187   1.791   1.009   0.087  0.2905  0.3118 -0.0334
  263EMC     C3 3188   1.807   1.211   4.472 -0.6327 -0.4528  0.3660
  263EMC     O1 3189   1.710   1.283   4.403 -0.1707  0.4454  0.0265
  263EMC     O2 3190   1.731   1.121   0.029  0.4349 -0.8911  0.1038
  263EMC     O3 3191   1.910   1.175   4.414  0.0017 -0.1328  0.0240
  263EMC     H1 3192   1.523   1.345   4.464 -0.0977  0.0490 -3.2211
  263EMC     H2 3193   1.633   1.467   4.434  2.1594 -1.2032 -3.0214
  263EMC     H3 3194   1.667   1.373   0.070 -0.1830  1.5013 -0.4214
  263EMC     C4 3195   1.691   0.899   0.093  0.0872 -0.5087 -0.1592
  263EMC     H4 3196   1.834   1.026   0.185 -1.1707  3.2144  0.2146
  263EMC     H5 3197   1.873   0.979   0.021  1.7813  1.5594  1.1813
  263EMC     H6 3198   1.747   0.820   0.144 -0.7959 -1.1765 -0.1964
  263EMC     H7 3199   1.653   0.876   4.503  0.9748 -0.0268 -0.6181
  263EMC     H8 3200   1.612   0.923   0.163  0.3501 -0.7429  0.2229
  264EMC     C1 3201   0.885   3.026   3.796  0.6718  0.3704  0.1051
  264EMC     C2 3202   0.703   3.074   3.429 -0.3313  0.0554 -0.1681
  264EMC     C3 3203   0.788   2.928   3.598 -0.4778  0.2643  0.0316
  264EMC     O1 3204   0.885   3.004   3.652  0.6612  0.4206 -0.0266
  264EMC     O2 3205   0.812   3.020   3.507  0.0435 -0.7086  0.1272
  264EMC     O3 3206   0.685   2.921   3.662  0.0551  0.2597  0.4196
  264EMC     H1 3207   0.948   3.108   3.831 -0.2654  0.6601  1.1820
  264EMC     H2 3208   0.891   2.937   3.858 -4.2567 -0.2151  0.1087
  264EMC     H3 3209   0.788   3.065   3.827 -0.2657 -3.9002  3.4599
  264EMC     C4 3210   0.750   3.186   3.341 -0.5088 -0.1184 -0.4549
  264EMC     H4 3211   0.607   3.100   3.474 -0.0703  0.0179  0.4133
  264EMC     H5 3212   0.684   2.988   3.364 -0.2270 -1.5273  1.8069
  264EMC     H6 3213   0.775   3.276   3.397  0.3583  0.9282 -2.4380
  264EMC     H7 3214   0.688   3.202   3.253  0.3413 -1.3801 -1.3042
  264EMC     H8 3215   0.831   3.140   3.285 -1.9174  0.9645 -3.5877
  265EMC     C1 3216   1.803   3.140   0.512 -0.0852  0.2060 -0.0199
  265EMC     C2 3217   1.393   3.271   0.517 -0.6488  0.1217  0.0082
  265EMC     C3 3218   1.573   3.144   0.615  0.2873 -0.0024 -0.0377
  265EMC     O1 3219   1.659   3.120   0.508  0.9690  0.7597  0.1850
  265EMC     O2 3220   1.464   3.147   0.527  0.4217 -0.0294 -0.0405
  265EMC     O3 3221   1.594   3.221   0.711  0.5519  0.0158 -0.6356
  265EMC     H1 3222   1.850   3.066   0.578  1.9725 -2.6735 -4.2381
  265EMC     H2 3223   1.817   3.241   0.550  2.1708 -0.8854  2.4260
  265EMC     H3 3224   1.843   3.145   0.411  0.3638  0.4987  0.1700
  265EMC     C4 3225   1.284   3.259   0.414  0.1163  0.1224 -0.0169
  265EMC     H4 3226   1.471   3.331   0.471  1.2889 -0.8044  1.9452
  265EMC     H5 3227   1.362   3.306   0.615 -0.6938 -0.0867  0.0696
  265EMC     H6 3228   1.204   3.187   0.433  1.5457 -1.8328 -1.0366
  265EMC     H7 3229   1.322   3.227   0.317  0.2159  0.0766  0.0368
  265EMC     H8 3230   1.237   3.357   0.419 -0.0740 -0.0249  1.6590
  266EMC     C1 3231   1.872   2.286   4.268 -0.0169  0.8927  0.7780
  266EMC     C2 3232   2.263   2.344   4.493 -0.0219  1.0774 -0.6455
  266EMC     C3 3233   2.095   2.361   4.327  0.2992  0.4515  0.1466
  266EMC     O1 3234   1.963   2.374   4.333 -0.1387 -0.5961 -0.8696
  266EMC     O2 3235   2.148   2.410   4.441  0.2207 -0.3768  0.1533
  266EMC     O3 3236   2.157   2.287   4.249 -0.2680 -0.5677  0.2160
  266EMC     H1 3237   1.849   2.198   4.328 -0.2000 -0.8731 -1.7182
  266EMC     H2 3238   1.900   2.242   4.172 -0.1695  2.4905 -0.0398
  266EMC     H3 3239   1.774   2.333   4.257 -0.4119  0.0737  0.7193
  266EMC     C4 3240   2.253   2.346   0.140  0.3500 -0.6141  0.0173
  266EMC     H4 3241   2.359   2.385   4.462  0.5236 -0.0438 -0.5167
  266EMC     H5 3242   2.264   2.242   4.453 -1.4159  0.7194  0.1484
  266EMC     H6 3243   2.152   2.323   0.175  0.1371  0.7240  0.3559
  266EMC     H7 3244   2.251   2.449   0.176  1.0988  0.2477 -2.2611
  266EMC     H8 3245   2.330   2.288   0.190 -0.6724 -0.8255  1.4317
  267EMC     C1 3246   0.050   1.937   3.176 -0.3482  0.8230 -0.4660
  267EMC     C2 3247   0.166   1.538   3.251  0.2497 -1.0894 -1.1115
  267EMC     C3 3248   0.056   1.702   3.132  0.5685  0.0971 -0.1767
  267EMC     O1 3249   0.095   1.826   3.102  0.0625  0.1503 -0.5918
  267EMC     O2 3250   0.126   1.673   3.239  0.0668 -0.2658  0.4257
  267EMC     O3 3251   0.025   1.622   3.043 -0.5179  0.1247 -0.6668
  267EMC     H1 3252   4.455   1.966   3.172 -1.6825 -2.8707  1.8448
  267EMC     H2 3253   0.105   2.023   3.139  1.8224  0.1834  1.0833
  267EMC     H3 3254   0.075   1.911   3.279 -0.3679  0.7101 -0.4892
  267EMC     C4 3255   0.269   1.529   3.360 -0.6728  0.2435  0.1776
  267EMC     H4 3256   0.204   1.490   3.161 -2.1487 -0.8539 -2.3222
  267EMC     H5 3257   0.085   1.472   3.283  2.0923 -1.8858  2.4066
  267EMC     H6 3258   0.343   1.604   3.331 -1.9010  0.7426 -1.9032
  267EMC     H7 3259   0.315   1.431   3.349  0.4009  0.6309  1.1095
  267EMC     H8 3260   0.233   1.555   3.460 -3.1575 -1.0174 -0.3074
  268EMC     C1 3261   4.124   1.409   2.044  0.7404 -0.3965 -0.1396
  268EMC     C2 3262   4.322   1.582   2.282 -0.1307 -0.3073  0.2167
  268EMC     C3 3263   4.339   1.380   2.153  0.0359  0.2173  0.1182
  268EMC     O1 3264   4.208   1.349   2.146  0.6009  0.3929  0.7032
  268EMC     O2 3265   4.278   1.451   2.247  0.2458 -0.0767  0.0155
  268EMC     O3 3266   4.406   1.428   2.059 -0.1150 -0.4596  0.1527
  268EMC     H1 3267   4.023   1.409   2.083  0.5626  3.0625 -0.3520
  268EMC     H2 3268   4.131   1.342   1.958 -3.1850  0.4120 -1.2806
  268EMC     H3 3269   4.144   1.514   2.023 -2.6733  0.1773 -1.0981
  268EMC     C4 3270   4.221   1.653   2.366  0.4769  0.3747 -1.5031
  268EMC     H4 3271   4.327   1.647   2.194 -2.0432  0.2528  0.4886
  268EMC     H5 3272   4.420   1.569   2.327 -0.1873 -1.6731 -0.0259
  268EMC     H6 3273   4.248   1.751   2.404  0.4592  0.0398 -0.6060
  268EMC     H7 3274   4.203   1.595   2.457  0.5704  2.3022 -0.2093
  268EMC     H8 3275   4.129   1.655   2.306  0.1497  3.5757 -1.0844
  269EMC     C1 3276   2.504   3.060   4.141 -0.4500  0.1590  0.9652
  269EMC     C2 3277   2.423   2.797   3.859  0.6406  0.1188 -0.6923
  269EMC     C3 3278   2.381   3.020   3.944  0.3656 -0.9932 -0.3905
  269EMC     O1 3279   2.491   3.071   3.999  0.2943  0.0260  0.6526
  269EMC     O2 3280   2.446   2.933   3.858 -0.0239 -0.0812  0.4217
  269EMC     O3 3281   2.282   2.983   4.017 -0.6398 -0.1338  0.2893
  269EMC     H1 3282   2.583   2.985   4.142 -0.9906 -0.4169  0.7878
  269EMC     H2 3283   2.429   3.024   4.211  1.7648 -4.8747  1.1781
  269EMC     H3 3284   2.548   3.150   4.186 -0.8433  1.6777 -1.4728
  269EMC     C4 3285   2.432   2.762   3.707  0.1661  0.6320  0.4585
  269EMC     H4 3286   2.327   2.771   3.904  0.3366  1.1403 -0.7279
  269EMC     H5 3287   2.498   2.741   3.916  1.4491  0.7403 -1.1201
  269EMC     H6 3288   2.531   2.794   3.675 -0.5077  0.7025 -1.7377
  269EMC     H7 3289   2.358   2.826   3.660 -1.1585 -1.9479 -1.2588
  269EMC     H8 3290   2.427   2.653   3.696 -0.8809  0.8275 -1.4915
  270EMC     C1 3291   2.086   3.844   2.060  0.3617  0.4818 -0.1089
  270EMC     C2 3292   2.378   4.011   1.831  0.1895 -0.4550 -1.0832
  270EMC     C3 3293   2.230   3.831   1.868 -0.1491 -0.1453  0.5494
  270EMC     O1 3294   2.132   3.885   1.928  0.1610 -0.1362 -0.1375
  270EMC     O2 3295   2.245   3.959   1.834 -0.4931 -0.2251 -0.4944
  270EMC     O3 3296   2.318   3.771   1.927 -0.1469  0.5578 -0.1639
  270EMC     H1 3297   2.016   3.919   2.096  1.7121  0.7198  2.2564
  270EMC     H2 3298   2.169   3.830   2.131  0.9174  0.6037 -0.7258
  270EMC     H3 3299   2.024   3.756   2.043 -0.5229  0.9882  0.4078
  270EMC     C4 3300   2.365   4.160   1.779 -0.0933  0.6031  0.3189
  270EMC     H4 3301   2.444   3.950   1.768 -1.0798 -0.5715 -2.3413
  270EMC     H5 3302   2.414   4.007   1.934 -1.3953  0.8363 -0.4385
  270EMC     H6 3303   2.266   4.201   1.801  0.0107 -0.5540  3.4152
  270EMC     H7 3304   2.370   4.150   1.670  0.5300 -2.8499  0.5559
  270EMC     H8 3305   2.431   4.235   1.822 -1.2477  1.8343  0.0442
  271EMC     C1 3306   1.415   4.115   4.214  0.4746 -0.2132 -0.5012
  271EMC     C2 3307   1.266   4.034   0.099 -0.0858 -0.5372  0.6325
  271EMC     C3 3308   1.440   4.090   4.457  0.3347 -0.2173 -0.2835
  271EMC     O1 3309   1.405   4.040   4.337 -0.2245  0.0471  0.1618
  271EMC     O2 3310   1.368   3.994   0.003  0.3354  0.0408 -0.5311
  271EMC     O3 3311   1.425   4.205   4.490  0.6480  0.2570  0.1084
  271EMC     H1 3312   1.338   4.079   4.146  1.7284 -2.4651 -0.8163
  271EMC     H2 3313   1.508   4.108   4.157  0.9679 -0.6558  0.3526
  271EMC     H3 3314   1.401   4.221   4.237 -0.3756 -0.3886 -0.1974
  271EMC     C4 3315   1.209   3.906   0.166  0.3369 -0.1038  0.6341
  271EMC     H4 3316   1.184   4.085   0.047 -1.7635 -2.2730  1.4452
  271EMC     H5 3317   1.302   4.109   0.169  0.4869 -0.9028  0.7332
  271EMC     H6 3318   1.167   3.928   0.264  0.0438  2.4452  0.0214
  271EMC     H7 3319   1.288   3.833   0.181 -0.3716 -0.6244  1.9520
  271EMC     H8 3320   1.131   3.858   0.106 -2.1247  1.0854  2.6824
  272EMC     C1 3321   2.015   0.671   3.700  0.4180 -0.0452 -0.6059
  272EMC     C2 3322   2.029   0.366   3.981 -0.0358  0.2366 -0.3458
  272EMC     C3 3323   1.980   0.450   3.759 -1.3812  1.0704 -0.0788
  272EMC     O1 3324   2.053   0.532   3.697  0.4892 -0.4018 -0.0052
  272EMC     O2 3325   2.007   0.481   3.893 -0.5492  0.9013 -0.2927
  272EMC     O3 3326   1.951   0.340   3.713  0.3175 -0.3994 -0.3102
  272EMC     H1 3327   1.931   0.688   3.768  1.0407 -0.0891  0.1826
  272EMC     H2 3328   1.973   0.688   3.601 -1.4594 -0.0545  0.1266
  272EMC     H3 3329   2.095   0.742   3.718 -0.6470  0.8700  0.7352
  272EMC     C4 3330   1.909   0.337   4.067  0.1978 -0.6006 -0.6071
  272EMC     H4 3331   2.118   0.377   4.044  1.5871  0.0262 -2.5104
  272EMC     H5 3332   2.058   0.277   3.925  1.9686  0.1651  0.7063
  272EMC     H6 3333   1.913   0.424   4.132  0.0556 -0.5788 -0.6288
  272EMC     H7 3334   1.921   0.251   4.133  0.0475 -0.8796 -0.9353
  272EMC     H8 3335   1.806   0.343   4.031 -0.1777  0.9121  0.6273
  273EMC     C1 3336   3.045   1.501   1.194  0.2420 -0.4581  0.2397
  273EMC     C2 3337   3.078   1.815   1.481  0.9476  1.1209  0.4996
  273EMC     C3 3338   3.133   1.598   1.391  0.3938  0.8758 -0.3024
  273EMC     O1 3339   3.106   1.608   1.260 -0.6949 -0.0189  0.1378
  273EMC     O2 3340   3.132   1.729   1.376 -0.2690 -0.0680 -0.4455
  273EMC     O3 3341   3.060   1.546   1.474  0.3743  0.2368  0.7160
  273EMC     H1 3342   3.034   1.519   1.087  1.1223 -0.0985  0.1987
  273EMC     H2 3343   2.945   1.482   1.232 -1.2387  4.4860 -0.3907
  273EMC     H3 3344   3.103   1.409   1.204  1.5163 -0.1368 -2.9362
  273EMC     C4 3345   3.069   1.962   1.456 -0.3343  0.0077 -0.0908
  273EMC     H4 3346   3.131   1.813   1.576 -0.3970  1.5671  1.2839
  273EMC     H5 3347   2.978   1.773   1.498  0.7618  0.9102 -0.9732
  273EMC     H6 3348   3.167   2.006   1.437 -1.1983  1.5692 -1.1804
  273EMC     H7 3349   3.018   2.015   1.536  1.5695  1.4904  0.2100
  273EMC     H8 3350   3.012   1.974   1.364 -0.0129  0.5616 -0.2250
  274EMC     C1 3351   2.338   0.307   0.832  0.4191  0.1091 -0.2377
  274EMC     C2 3352   2.437   0.155   1.192  0.0768  0.0687 -0.1515
  274EMC     C3 3353   2.482   0.325   1.019  0.7681  0.7683 -0.0701
  274EMC     O1 3354   2.357   0.347   0.962  0.2321 -1.0081  0.0396
  274EMC     O2 3355   2.452   0.190   1.056 -0.1814 -0.4430 -0.0431
  274EMC     O3 3356   2.529   0.405   1.101  0.0602  1.0917  0.1088
  274EMC     H1 3357   2.249   0.355   0.793  0.9543  2.2811  1.0346
  274EMC     H2 3358   2.314   0.201   0.827 -2.0148  0.6423 -1.1367
  274EMC     H3 3359   2.423   0.314   0.764 -0.5312 -0.1869 -1.4836
  274EMC     C4 3360   2.444   4.507   1.197  0.3058 -0.0724  0.0751
  274EMC     H4 3361   2.337   0.184   1.224 -0.1584 -1.2914  0.4414
  274EMC     H5 3362   2.513   0.194   1.261  1.3664 -0.8889 -0.9745
  274EMC     H6 3363   2.424   4.473   1.298  0.0915  2.0973  0.8094
  274EMC     H7 3364   2.542   4.467   1.170  0.3423 -0.1924  0.3799
  274EMC     H8 3365   2.380   4.457   1.124  0.0225 -0.8993  0.8678
  275EMC     C1 3366   2.424   2.726   3.306 -0.2194  0.5451 -0.3895
  275EMC     C2 3367   2.769   2.737   3.107  0.1776  1.0363 -1.0691
  275EMC     C3 3368   2.649   2.681   3.312  0.5642  0.3123 -0.1862
  275EMC     O1 3369   2.557   2.766   3.305 -0.7608  0.6432  0.2355
  275EMC     O2 3370   2.714   2.769   3.239 -0.3117 -0.0750  0.4519
  275EMC     O3 3371   2.631   2.566   3.277 -0.2408  0.4578 -0.2088
  275EMC     H1 3372   2.407   2.636   3.245 -1.4520 -0.3888  1.2545
  275EMC     H2 3373   2.349   2.795   3.268 -0.9302  1.2927  2.2036
  275EMC     H3 3374   2.388   2.691   3.402 -1.1593 -0.9754 -1.2395
  275EMC     C4 3375   2.832   2.865   3.047 -0.4124 -0.2175 -0.1433
  275EMC     H4 3376   2.683   2.705   3.048 -0.1683 -1.8848  0.8232
  275EMC     H5 3377   2.840   2.656   3.123 -0.0910  0.9228 -0.3998
  275EMC     H6 3378   2.913   2.897   3.113 -1.2289 -0.5360  1.0645
  275EMC     H7 3379   2.759   2.946   3.049 -0.0453  0.1186 -0.3308
  275EMC     H8 3380   2.860   2.850   2.943  3.1090  1.6389  0.4061
  276EMC     C1 3381   4.024   0.749   4.257  0.3227 -0.4043 -0.1686
  276EMC     C2 3382   3.968   0.586   3.872  0.4541 -0.0724  0.8735
  276EMC     C3 3383   3.917   0.603   4.102  0.3779 -0.2335  0.2515
  276EMC     O1 3384   3.953   0.724   4.139  0.0629  0.6452  0.0563
  276EMC     O2 3385   3.925   0.654   3.989 -0.9708  0.0277  0.0510
  276EMC     O3 3386   3.988   0.505   4.131 -0.9965  0.0381 -0.1227
  276EMC     H1 3387   4.016   0.663   4.323  0.7996  1.1553  2.0393
  276EMC     H2 3388   3.995   0.837   4.315  1.2080 -1.3760  1.8368
  276EMC     H3 3389   4.131   0.769   4.246  0.2337  3.2113  3.1117
  276EMC     C4 3390   3.916   0.655   3.750  0.0027  0.5788  0.2720
  276EMC     H4 3391   3.927   0.485   3.871  1.9238 -0.7369  2.2660
  276EMC     H5 3392   4.077   0.582   3.874  0.5829  2.0311  0.3238
  276EMC     H6 3393   3.919   0.582   3.668 -1.6678  1.6332 -0.7863
  276EMC     H7 3394   3.981   0.737   3.720 -0.7632  1.3953  0.8085
  276EMC     H8 3395   3.814   0.692   3.758 -0.9358 -1.3474 -1.6099
  277EMC     C1 3396   3.137   0.634   3.544 -0.2970  0.0069  0.6112
  277EMC     C2 3397   3.039   1.018   3.420  0.3641  0.7185  0.2191
  277EMC     C3 3398   3.181   0.870   3.534 -0.0477  0.2881  0.2451
  277EMC     O1 3399   3.188   0.747   3.482 -0.0200  0.0539 -0.5950
  277EMC     O2 3400   3.141   0.918   3.422 -0.2794 -0.8602 -0.2123
  277EMC     O3 3401   3.124   0.881   3.646 -0.0052  0.2534 -0.2372
  277EMC     H1 3402   3.031   0.615   3.528  0.0951 -0.8846 -1.2244
  277EMC     H2 3403   3.158   0.641   3.651  0.7419 -0.2198  0.4379
  277EMC     H3 3404   3.192   0.544   3.516  0.0919  0.2450  0.5886
  277EMC     C4 3405   3.049   1.113   3.308  0.0693  0.0851  0.9467
  277EMC     H4 3406   3.013   1.072   3.511 -1.7829  0.3855 -0.1269
  277EMC     H5 3407   2.944   0.967   3.401  0.2986  0.6059  0.8395
  277EMC     H6 3408   3.039   1.074   3.207 -0.8545 -1.8408  1.7431
  277EMC     H7 3409   3.144   1.165   3.314  0.1639  0.1458 -0.7706
  277EMC     H8 3410   2.972   1.190   3.316  0.9023  0.9573  0.7463
  278EMC     C1 3411   1.210   1.709   1.829 -0.3149 -0.6643 -0.1951
  278EMC     C2 3412   1.064   1.481   2.126  0.1010 -0.2910 -0.0491
  278EMC     C3 3413   1.136   1.501   1.903 -0.4537  0.0088  0.2366
  278EMC     O1 3414   1.110   1.636   1.891  0.0473  0.0114  0.0005
  278EMC     O2 3415   1.042   1.528   1.997 -0.2176  0.3143  0.0389
  278EMC     O3 3416   1.249   1.459   1.927  0.6033  0.4165  0.1703
  278EMC     H1 3417   1.184   1.721   1.724 -0.5781  1.8155  0.0967
  278EMC     H2 3418   1.305   1.656   1.838  0.3604  0.4025 -0.7231
  278EMC     H3 3419   1.234   1.799   1.887 -1.6840 -1.0095  0.9424
  278EMC     C4 3420   0.961   1.546   2.216 -0.2270  0.3088 -0.9144
  278EMC     H4 3421   1.162   1.514   2.161  0.5665  1.3247 -2.6394
  278EMC     H5 3422   1.062   1.372   2.134 -0.8334 -0.2759  0.0108
  278EMC     H6 3423   0.971   1.527   2.323 -0.3207  0.0931 -0.9445
  278EMC     H7 3424   0.858   1.522   2.188 -0.8427  2.9835 -1.2090
  278EMC     H8 3425   0.972   1.653   2.200 -1.9761  0.3547 -2.0669
  279EMC     C1 3426   3.517   3.239   2.157  0.0883  0.2917 -0.0847
  279EMC     C2 3427   3.204   3.491   2.267 -0.2975  0.2924  0.2848
  279EMC     C3 3428   3.304   3.268   2.265 -0.5608  0.5252 -0.7593
  279EMC     O1 3429   3.437   3.274   2.272  0.5859 -0.0263  0.6170
  279EMC     O2 3430   3.297   3.396   2.313  0.6186  0.3112 -0.0360
  279EMC     O3 3431   3.245   3.228   2.166  0.5470  0.4141 -0.2830
  279EMC     H1 3432   3.544   3.135   2.145  1.7793  0.5877  0.8519
  279EMC     H2 3433   3.613   3.289   2.163  0.1193  0.2857 -0.4657
  279EMC     H3 3434   3.473   3.275   2.063 -2.1801  2.0854  1.5357
  279EMC     C4 3435   3.267   3.585   2.176 -0.0742 -0.2073  0.1953
  279EMC     H4 3436   3.173   3.551   2.353  1.5398  1.5418  0.1108
  279EMC     H5 3437   3.115   3.448   2.221 -0.1526  1.2134 -0.8942
  279EMC     H6 3438   3.200   3.668   2.157  3.8635  2.5777 -3.5478
  279EMC     H7 3439   3.307   3.556   2.078 -1.4877  2.6175 -1.3348
  279EMC     H8 3440   3.353   3.631   2.226 -0.3326  0.6154 -0.1071
  280EMC     C1 3441   2.614   4.401   3.036  0.9677  0.4147  0.2769
  280EMC     C2 3442   2.448   0.205   2.885  0.1027  0.4171  0.1954
  280EMC     C3 3443   2.649   0.066   2.879 -0.5431  0.0981  0.0762
  280EMC     O1 3444   2.643   0.017   3.001  0.6878 -0.1776 -0.1451
  280EMC     O2 3445   2.575   0.163   2.942 -0.3947 -0.0740  0.3067
  280EMC     O3 3446   2.617   0.007   2.784  0.4377 -0.4952  0.5022
  280EMC     H1 3447   2.607   4.376   3.142 -1.5630 -2.7374 -0.4572
  280EMC     H2 3448   2.686   4.337   2.984  0.0423 -0.5177  0.1091
  280EMC     H3 3449   2.518   4.369   2.996  0.3788  0.1057  1.8694
  280EMC     C4 3450   2.379   0.285   2.998 -0.0484  0.2633 -0.4326
  280EMC     H4 3451   2.397   0.108   2.878  0.4359  0.0888  1.8836
  280EMC     H5 3452   2.455   0.251   2.787 -1.4476 -2.0813 -1.1951
  280EMC     H6 3453   2.355   0.228   3.088 -2.0149  1.3056 -0.2591
  280EMC     H7 3454   2.285   0.323   2.959  0.3140  0.2106 -1.3948
  280EMC     H8 3455   2.424   0.382   3.020  0.4121 -0.5942  2.9020
  281EMC     C1 3456   2.747   0.667   1.001 -0.0647 -0.3520  0.9539
  281EMC     C2 3457   2.516   0.707   1.302  0.1229 -0.7613 -0.0195
  281EMC     C3 3458   2.702   0.811   1.188 -1.0833 -0.1658 -0.2415
  281EMC     O1 3459   2.732   0.688   1.143 -0.2743 -0.4549  0.2438
  281EMC     O2 3460   2.650   0.705   1.256  0.0594 -0.3000  0.6361
  281EMC     O3 3461   2.630   0.892   1.132 -0.1413 -0.3057  0.3689
  281EMC     H1 3462   2.755   0.560   0.980  0.5617 -0.6407  2.5476
  281EMC     H2 3463   2.845   0.696   0.962 -1.0106  1.7057 -0.0817
  281EMC     H3 3464   2.677   0.720   0.937  1.5195  0.2210 -0.3962
  281EMC     C4 3465   2.512   0.697   1.452  0.3170 -0.1183 -0.0734
  281EMC     H4 3466   2.456   0.629   1.256 -2.4546  0.7894  0.5225
  281EMC     H5 3467   2.466   0.797   1.267  2.1919  1.0638  1.4602
  281EMC     H6 3468   2.408   0.668   1.464  0.6892 -1.3728  0.2831
  281EMC     H7 3469   2.525   0.797   1.492 -0.7529  0.5056 -1.1987
  281EMC     H8 3470   2.585   0.618   1.472  0.5230 -0.3928 -1.7610
  282EMC     C1 3471   0.776   0.224   2.824 -0.2539 -0.8268 -0.5604
  282EMC     C2 3472   0.574   0.027   3.193 -0.4088 -0.0801 -0.3902
  282EMC     C3 3473   0.681   0.105   3.008  0.3474 -0.3602 -0.4178
  282EMC     O1 3474   0.666   0.154   2.887  0.0604 -0.7758  0.5919
  282EMC     O2 3475   0.575   0.046   3.059  0.0299  0.5584  0.0723
  282EMC     O3 3476   0.787   0.123   3.069  0.6332 -0.3792  0.1075
  282EMC     H1 3477   0.775   0.237   2.715  2.6774 -0.5797 -0.6412
  282EMC     H2 3478   0.872   0.178   2.843  0.6700  1.3973  0.5087
  282EMC     H3 3479   0.775   0.326   2.862 -0.4728 -0.5796 -1.2129
  282EMC     C4 3480   0.463   4.444   3.227  0.2812 -0.4129  0.6629
  282EMC     H4 3481   0.554   0.127   3.232  1.5066 -0.1054  0.7955
  282EMC     H5 3482   0.670   4.508   3.234 -1.2744 -0.9290  1.1349
  282EMC     H6 3483   0.476   4.420   3.332 -2.7545 -1.1386  0.9707
  282EMC     H7 3484   0.454   4.352   3.168  0.5864  0.7550 -1.3153
  282EMC     H8 3485   0.365   4.492   3.215  0.7504  0.2403 -0.9061
  283EMC     C1 3486   0.560   4.232   3.609  0.0985 -0.2379 -0.4868
  283EMC     C2 3487   0.174   4.172   3.457 -1.0980  0.1709  0.8412
  283EMC     C3 3488   0.330   4.169   3.641  0.4263 -0.0260  0.2320
  283EMC     O1 3489   0.420   4.230   3.563 -1.0608  0.5186 -0.5294
  283EMC     O2 3490   0.207   4.202   3.595 -0.2251  0.3403  0.3566
  283EMC     O3 3491   0.351   4.145   3.756  0.4704 -0.2872  0.2850
  283EMC     H1 3492   0.563   4.295   3.698  2.4470  0.5931 -1.0865
  283EMC     H2 3493   0.621   4.269   3.526 -0.0442  0.5841 -0.2328
  283EMC     H3 3494   0.594   4.131   3.633  1.1295 -0.3176 -2.1376
  283EMC     C4 3495   0.042   4.238   3.411 -0.3443  0.4871 -0.0673
  283EMC     H4 3496   0.192   4.069   3.428 -1.4837 -0.9923  4.2983
  283EMC     H5 3497   0.248   4.230   3.402 -0.3284 -1.9708 -0.5038
  283EMC     H6 3498   0.034   4.259   3.304 -0.0830  1.4098  0.0868
  283EMC     H7 3499   0.040   4.333   3.466 -1.9970 -0.2771  1.2736
  283EMC     H8 3500   4.471   4.180   3.456 -1.5491  3.2813  1.6980
  284EMC     C1 3501   1.389   3.544   2.686  1.0487 -0.8727 -0.9518
  284EMC     C2 3502   1.475   3.199   2.683 -0.6170 -0.4437  0.3798
  284EMC     C3 3503   1.523   3.395   2.821 -0.6411  0.7062 -0.1951
  284EMC     O1 3504   1.516   3.487   2.716 -0.1412 -0.4579  0.2778
  284EMC     O2 3505   1.558   3.314   2.714 -0.5012  0.0028  0.3874
  284EMC     O3 3506   1.429   3.368   2.898 -0.0782  0.1927 -0.4474
  284EMC     H1 3507   1.333   3.498   2.604  0.1579  0.8363 -1.3427
  284EMC     H2 3508   1.410   3.644   2.649 -1.0710 -0.8276 -2.1898
  284EMC     H3 3509   1.322   3.552   2.772  1.4131 -0.8372 -0.6672
  284EMC     C4 3510   1.498   3.167   2.534 -0.0357  0.2255 -0.3680
  284EMC     H4 3511   1.370   3.219   2.701 -0.4607  0.7252  0.0658
  284EMC     H5 3512   1.501   3.123   2.757 -1.7543 -1.4545 -0.2347
  284EMC     H6 3513   1.605   3.164   2.513 -0.0614 -1.5304 -0.3316
  284EMC     H7 3514   1.444   3.236   2.469  0.7957  1.7703  0.5235
  284EMC     H8 3515   1.474   3.062   2.519 -0.1734 -0.0517  1.5904
  285EMC     C1 3516   1.852   0.261   3.395  0.2436 -0.2506  0.2250
  285EMC     C2 3517   1.979   0.421   3.036  0.0998  0.4225  0.5985
  285EMC     C3 3518   1.813   0.390   3.199  0.0184 -0.2010  0.6808
  285EMC     O1 3519   1.852   0.393   3.328 -0.0028  0.3878 -0.0287
  285EMC     O2 3520   1.920   0.464   3.157  0.1577  0.4704  0.0418
  285EMC     O3 3521   1.779   0.287   3.139  0.1415  0.5461  1.0192
  285EMC     H1 3522   1.882   0.180   3.329  0.2202  0.0520 -0.1616
  285EMC     H2 3523   1.751   0.236   3.428  0.0159 -1.6556 -1.3920
  285EMC     H3 3524   1.916   0.262   3.483 -0.9468 -1.1859  1.1307
  285EMC     C4 3525   1.937   0.472   2.897 -0.2071  0.5054  0.0249
  285EMC     H4 3526   1.968   0.312   3.030 -1.7028  0.6432 -2.3567
  285EMC     H5 3527   2.086   0.438   3.049  0.0829  0.0637  1.2542
  285EMC     H6 3528   1.829   0.480   2.884 -0.0393  1.8707 -0.8497
  285EMC     H7 3529   1.970   0.401   2.821 -1.1577 -1.5837  1.4915
  285EMC     H8 3530   1.974   0.571   2.870 -1.1787  0.4548 -1.6635
  286EMC     C1 3531   2.196   0.381   0.129 -0.8657  0.0977 -0.4267
  286EMC     C2 3532   1.857   0.416   4.490 -0.3331  0.3286 -0.6809
  286EMC     C3 3533   2.018   0.251   0.037  0.7467  0.1075  0.4730
  286EMC     O1 3534   2.070   0.312   0.148  0.0198  0.1507  0.7818
  286EMC     O2 3535   1.932   0.344   0.076 -0.4475  0.0594 -0.2561
  286EMC     O3 3536   2.060   0.240   4.431 -0.5157  0.2669  0.8546
  286EMC     H1 3537   2.257   0.340   0.048  0.6074  2.5554 -0.6721
  286EMC     H2 3538   2.266   0.391   0.212 -0.1891 -0.5714 -0.8937
  286EMC     H3 3539   2.169   0.479   0.092 -1.3326 -0.0111 -0.3764
  286EMC     C4 3540   1.747   0.487   0.050  0.4130  0.1682  0.3184
  286EMC     H4 3541   1.829   0.343   4.415 -1.4992 -0.6114  0.6110
  286EMC     H5 3542   1.919   0.486   4.434 -2.1983  2.2722 -0.4040
  286EMC     H6 3543   1.683   0.539   4.488 -2.6484  0.0515  2.7261
  286EMC     H7 3544   1.764   0.565   0.123 -0.4666  0.3882  0.3001
  286EMC     H8 3545   1.677   0.412   0.088 -0.1248 -1.2462 -3.0895
  287EMC     C1 3546   4.124   0.113   3.750  0.3066  0.3168  0.6720
  287EMC     C2 3547   3.845   0.210   4.029 -0.1566  0.0165  0.0939
  287EMC     C3 3548   4.063   0.230   3.944  0.0057 -0.2898 -0.7321
  287EMC     O1 3549   4.088   0.232   3.813 -0.2965  0.1978 -0.6495
  287EMC     O2 3550   3.930   0.246   3.921  0.1650 -0.1634 -0.2619
  287EMC     O3 3551   4.115   0.155   4.028  0.1294  0.7782  0.0796
  287EMC     H1 3552   4.033   0.054   3.740  0.4007  0.3273 -0.3234
  287EMC     H2 3553   4.196   0.042   3.792  0.5802 -0.0682 -0.4289
  287EMC     H3 3554   4.165   0.141   3.653  1.3013 -0.5370  0.8240
  287EMC     C4 3555   3.703   0.164   3.998  0.2507 -0.2641  0.5452
  287EMC     H4 3556   3.846   0.297   4.095  0.8335  0.4267 -0.4327
  287EMC     H5 3557   3.893   0.136   4.093  1.1904  1.8926  1.3539
  287EMC     H6 3558   3.700   0.080   3.927  0.3888 -0.3787  0.6747
  287EMC     H7 3559   3.645   0.250   3.964  2.6070  1.3032  0.2608
  287EMC     H8 3560   3.652   0.123   4.084  0.2717 -1.2274  0.1137
  288EMC     C1 3561   0.385   0.709   3.289 -0.5334  0.1380  0.0300
  288EMC     C2 3562   0.344   0.653   2.947  0.0811 -0.3984 -0.3413
  288EMC     C3 3563   0.347   0.839   3.095  0.0894 -0.1239 -0.1754
  288EMC     O1 3564   0.296   0.763   3.191  0.3700 -0.0548 -0.0678
  288EMC     O2 3565   0.283   0.738   3.045 -0.3944 -0.3135 -0.3544
  288EMC     O3 3566   0.465   0.868   3.074 -0.2367 -0.1247 -0.0305
  288EMC     H1 3567   0.405   0.777   3.372 -3.0526  0.7665  0.2055
  288EMC     H2 3568   0.469   0.672   3.230  0.0985 -2.9171  2.5309
  288EMC     H3 3569   0.336   0.623   3.335  0.8266 -0.7493 -0.1169
  288EMC     C4 3570   0.336   0.723   2.817  0.4117 -0.2208  0.2551
  288EMC     H4 3571   0.291   0.557   2.938 -1.0295  0.0645  0.8932
  288EMC     H5 3572   0.449   0.650   2.973 -0.1760  0.8325  0.9369
  288EMC     H6 3573   0.352   0.830   2.828 -2.4201  0.2377  0.8756
  288EMC     H7 3574   0.239   0.706   2.769  1.4468 -0.1129 -1.9866
  288EMC     H8 3575   0.410   0.691   2.743 -0.5367 -0.6099 -0.5535
  289EMC     C1 3576   2.556   0.961   2.249  0.3159 -0.0452 -0.3078
  289EMC     C2 3577   2.921   0.925   2.389  0.0351  0.0849 -0.4341
  289EMC     C3 3578   2.768   1.045   2.230 -0.0161  0.2311  0.2386
  289EMC     O1 3579   2.653   1.048   2.305  0.2206 -0.4252 -0.7047
  289EMC     O2 3580   2.818   1.018   2.363  0.1832  0.1901  0.9215
  289EMC     O3 3581   2.788   0.975   2.135  0.4989 -0.3296 -0.2545
  289EMC     H1 3582   2.593   0.863   2.277  0.7286  0.5690  1.4620
  289EMC     H2 3583   2.541   0.976   2.142  0.1970 -0.9631 -0.4220
  289EMC     H3 3584   2.459   0.981   2.295  0.3746  1.2559 -0.6971
  289EMC     C4 3585   2.955   0.910   2.536  0.0445  0.2068 -0.5267
  289EMC     H4 3586   3.007   0.964   2.335 -0.8107  2.0078 -0.4727
  289EMC     H5 3587   2.904   0.826   2.348  1.8539 -0.2783 -0.4019
  289EMC     H6 3588   2.968   1.011   2.576  0.5527 -0.8526  2.1521
  289EMC     H7 3589   3.048   0.855   2.546 -0.1567 -0.1087 -0.3972
  289EMC     H8 3590   2.877   0.864   2.597 -0.5628 -0.5234 -1.8053
  290EMC     C1 3591   2.754   2.383   3.563  0.8628 -0.2938  0.3192
  290EMC     C2 3592   2.986   2.237   3.268  0.4337  0.4902 -0.4011
  290EMC     C3 3593   2.967   2.359   3.478  1.1939  0.1070  0.3558
  290EMC     O1 3594   2.860   2.306   3.533 -0.1919  0.2714 -0.4506
  290EMC     O2 3595   2.968   2.239   3.407 -0.1099 -0.7582 -0.9403
  290EMC     O3 3596   2.967   2.461   3.414 -0.1425  0.1154  0.5957
  290EMC     H1 3597   2.718   2.418   3.466  1.3166  0.2714  0.3485
  290EMC     H2 3598   2.788   2.460   3.633  2.0421  0.4861 -1.0513
  290EMC     H3 3599   2.686   2.317   3.615 -0.8231  3.1518  2.9200
  290EMC     C4 3600   2.853   2.250   3.192  0.1573  0.6321 -0.3087
  290EMC     H4 3601   3.021   2.140   3.235 -1.1657 -0.7269  1.2933
  290EMC     H5 3602   3.054   2.313   3.229 -1.0443  0.0581 -4.2645
  290EMC     H6 3603   2.814   2.351   3.206 -1.4418  0.1269 -0.8238
  290EMC     H7 3604   2.777   2.177   3.222  1.0778 -0.2149 -0.0053
  290EMC     H8 3605   2.870   2.254   3.085 -2.9913 -1.3174 -1.0410
  291EMC     C1 3606   1.813   1.820   1.150  0.5430  1.0579  0.0308
  291EMC     C2 3607   1.799   1.611   0.786 -0.2199  0.3070  0.0704
  291EMC     C3 3608   1.893   1.779   0.928 -0.1315  0.1160  0.1333
  291EMC     O1 3609   1.797   1.833   1.006  0.6249 -0.1981 -0.0387
  291EMC     O2 3610   1.790   1.732   0.854 -0.1470 -0.8653 -0.3633
  291EMC     O3 3611   1.986   1.710   0.969 -0.1429  0.1691  0.2838
  291EMC     H1 3612   1.910   1.863   1.177  1.1873 -0.4931  0.2662
  291EMC     H2 3613   1.797   1.718   1.183 -5.2747  0.9876 -1.8784
  291EMC     H3 3614   1.739   1.880   1.203 -1.9042 -2.3122  0.7220
  291EMC     C4 3615   1.688   1.604   0.679  0.2845 -0.9954  0.8469
  291EMC     H4 3616   1.784   1.541   0.867 -0.8506  2.2367  1.7077
  291EMC     H5 3617   1.899   1.589   0.749 -0.1817 -1.2348  1.0206
  291EMC     H6 3618   1.586   1.619   0.715 -0.2964  0.4633 -1.2326
  291EMC     H7 3619   1.694   1.505   0.632 -1.6482 -1.9970  2.5144
  291EMC     H8 3620   1.685   1.680   0.602 -0.5155 -0.4255  1.4194
  292EMC     C1 3621   2.555   0.054   4.503 -0.2424 -0.1842  0.1891
  292EMC     C2 3622   2.432   4.200   4.391 -0.1253 -0.9102 -0.1785
  292EMC     C3 3623   2.594   4.328   4.510 -0.2295 -0.1814 -0.7868
  292EMC     O1 3624   2.518   4.431   0.033 -0.4989 -0.1791 -0.1018
  292EMC     O2 3625   2.467   4.282   4.503 -0.0948  0.2123 -0.7789
  292EMC     O3 3626   2.676   4.317   4.420 -0.0616 -0.5210 -0.3999
  292EMC     H1 3627   2.644   0.097   0.040  0.3556  0.6087 -1.5642
  292EMC     H2 3628   2.473   0.124   0.008  0.5774  1.4275 -2.2208
  292EMC     H3 3629   2.585   0.064   4.399  0.5642  0.8321  0.5021
  292EMC     C4 3630   2.281   4.191   4.389 -0.4742  0.2847  0.3654
  292EMC     H4 3631   2.491   4.109   4.396  0.4476 -0.6606 -1.7897
  292EMC     H5 3632   2.467   4.252   4.303 -0.1833 -0.3324  0.1357
  292EMC     H6 3633   2.249   4.120   4.312 -1.6615 -0.1768  1.2647
  292EMC     H7 3634   2.237   4.289   4.370  1.2685  0.9206 -0.5960
  292EMC     H8 3635   2.236   4.156   4.481 -0.0160  3.1316  1.7794
  293EMC     C1 3636   1.728   2.660   4.489  0.0597 -1.0181  0.6968
  293EMC     C2 3637   1.617   2.871   4.166 -0.1430 -0.3455  0.4190
  293EMC     C3 3638   1.751   2.865   4.357  0.0058 -0.4076  0.7008
  293EMC     O1 3639   1.778   2.794   4.463 -0.1705 -0.0149  0.2964
  293EMC     O2 3640   1.647   2.808   4.288 -0.3392 -0.0819 -0.2447
  293EMC     O3 3641   1.813   2.966   4.323 -0.0827  0.6339  0.2032
  293EMC     H1 3642   1.808   2.589   4.467 -1.5606 -2.6932 -0.0443
  293EMC     H2 3643   1.640   2.637   4.429 -0.3042  2.6193 -0.3877
  293EMC     H3 3644   1.694   2.651   0.082 -1.5552 -1.9975  0.1196
  293EMC     C4 3645   1.506   2.807   4.083  0.4837 -0.0219 -0.6062
  293EMC     H4 3646   1.699   2.882   4.095 -0.8827 -2.5484 -0.9037
  293EMC     H5 3647   1.590   2.972   4.196  2.1637  1.3094 -2.5249
  293EMC     H6 3648   1.489   2.848   3.984 -1.1582  1.1111  0.0785
  293EMC     H7 3649   1.405   2.819   4.124  0.6704  0.1791 -0.1918
  293EMC     H8 3650   1.523   2.702   4.061 -1.0199  0.0460 -2.3206
  294EMC     C1 3651   1.340   2.528   3.788  0.9404 -0.1978 -0.9864
  294EMC     C2 3652   1.668   2.775   3.763  0.2703  0.8282  0.5600
  294EMC     C3 3653   1.490   2.655   3.668  0.6837 -0.1921 -0.1957
  294EMC     O1 3654   1.379   2.650   3.734  0.3928 -0.6076 -0.0670
  294EMC     O2 3655   1.533   2.764   3.721 -0.5689 -0.0417 -1.0808
  294EMC     O3 3656   1.563   2.553   3.640 -0.3871 -1.0416  0.0289
  294EMC     H1 3657   1.231   2.519   3.784  0.9851 -2.3111  0.7127
  294EMC     H2 3658   1.377   2.519   3.891 -0.3382 -1.7491 -0.6253
  294EMC     H3 3659   1.389   2.451   3.729  3.0335  1.0087 -0.9370
  294EMC     C4 3660   1.695   2.925   3.777  0.1222  0.3205  0.2621
  294EMC     H4 3661   1.741   2.735   3.694  1.4632  0.8119  1.7853
  294EMC     H5 3662   1.687   2.729   3.860  0.1440 -2.0024 -0.6746
  294EMC     H6 3663   1.619   2.980   3.832 -1.1839 -0.3024 -0.8848
  294EMC     H7 3664   1.678   2.966   3.678  0.0414 -0.9770 -0.2808
  294EMC     H8 3665   1.794   2.954   3.815 -0.1802  0.3204  1.0633
  295EMC     C1 3666   1.647   0.715   4.185  0.4453 -0.0745 -0.5747
  295EMC     C2 3667   2.095   0.688   4.251 -0.0709  0.5494  0.2580
  295EMC     C3 3668   1.866   0.718   4.263  0.4552 -0.0781  0.4870
  295EMC     O1 3669   1.759   0.652   4.236  0.0096  0.1990  0.2973
  295EMC     O2 3670   1.966   0.629   4.270 -0.1240 -0.0097  0.0825
  295EMC     O3 3671   1.879   0.835   4.231 -0.5154 -0.6430  0.2559
  295EMC     H1 3672   1.558   0.653   4.190 -0.8326  1.6644 -0.8255
  295EMC     H2 3673   1.656   0.750   4.082  1.4299  1.3403 -0.0543
  295EMC     H3 3674   1.615   0.809   4.230 -2.1437 -1.1234 -0.0622
  295EMC     C4 3675   2.192   0.630   4.351 -0.2072 -0.0860 -0.4311
  295EMC     H4 3676   2.102   0.796   4.261  1.0787  0.4860  0.1971
  295EMC     H5 3677   2.131   0.672   4.149  2.3145 -3.6247  1.4999
  295EMC     H6 3678   2.216   0.527   4.328  5.5642  0.6686  0.8649
  295EMC     H7 3679   2.149   0.635   4.451 -1.9990 -2.7035 -0.9670
  295EMC     H8 3680   2.289   0.679   4.349 -0.6620  0.8357 -0.7093
  296EMC     C1 3681   0.103   4.404   2.570  0.1400  0.7139 -0.1568
  296EMC     C2 3682   0.256   4.004   2.480  0.5655 -0.3548 -0.3231
  296EMC     C3 3683   0.258   4.246   2.493  0.4628 -0.1313  0.1343
  296EMC     O1 3684   0.186   4.288   2.593 -0.4114  0.5867  0.1389
  296EMC     O2 3685   0.256   4.128   2.554 -0.1595 -0.1035  0.0182
  296EMC     O3 3686   0.222   4.265   2.372  0.1653 -0.3827 -0.3613
  296EMC     H1 3687   0.151   4.499   2.547 -1.9241  1.8231 -0.0405
  296EMC     H2 3688   0.030   4.422   2.650  0.5975 -0.5407  0.5759
  296EMC     H3 3689   0.043   4.379   2.483  1.3618 -1.2418 -0.5026
  296EMC     C4 3690   0.309   3.883   2.554 -0.8918 -0.0993 -0.0031
  296EMC     H4 3691   0.316   4.015   2.390 -0.5103  0.2542 -0.9905
  296EMC     H5 3692   0.150   3.982   2.465  0.0628  0.0459  2.1689
  296EMC     H6 3693   0.416   3.896   2.568 -0.7863 -2.0454  1.4722
  296EMC     H7 3694   0.290   3.784   2.513  0.4255  0.2659 -1.5738
  296EMC     H8 3695   0.253   3.890   2.648  2.3382 -1.1407  2.1561
  297EMC     C1 3696   1.506   1.093   2.898  0.2310 -0.6863 -0.4950
  297EMC     C2 3697   1.729   0.916   3.186 -0.8968 -0.8964  0.0666
  297EMC     C3 3698   1.511   0.984   3.112 -0.0337 -0.3802 -0.1069
  297EMC     O1 3699   1.532   1.093   3.036  0.6396  0.2904 -0.2653
  297EMC     O2 3700   1.629   0.920   3.086  0.2493 -0.7012  0.5127
  297EMC     O3 3701   1.467   1.000   3.222 -0.4619 -0.6382  0.0364
  297EMC     H1 3702   1.588   1.044   2.845  0.9722 -0.5853  0.5186
  297EMC     H2 3703   1.494   1.195   2.861  0.2947 -1.3713 -2.4710
  297EMC     H3 3704   1.416   1.041   2.868 -1.3289  1.0617  0.8994
  297EMC     C4 3705   1.835   0.818   3.130 -0.6219 -0.2664 -0.6316
  297EMC     H4 3706   1.693   0.870   3.278  0.5571 -2.4794 -0.1013
  297EMC     H5 3707   1.770   1.017   3.194 -0.5675 -0.9824 -0.4975
  297EMC     H6 3708   1.924   0.834   3.190  0.1904 -0.9357 -1.6319
  297EMC     H7 3709   1.865   0.839   3.027  1.2415 -1.8432 -0.4579
  297EMC     H8 3710   1.797   0.716   3.129 -2.4355  0.2507  2.5965
  298EMC     C1 3711   0.579   0.424   3.975  0.3227  0.6840  0.0257
  298EMC     C2 3712   0.764   0.815   3.956 -0.2194 -0.4206  0.5738
  298EMC     C3 3713   0.590   0.658   3.981 -0.3569 -0.5300 -0.5379
  298EMC     O1 3714   0.610   0.544   4.043 -0.4749 -0.4857  0.3699
  298EMC     O2 3715   0.697   0.721   4.028  0.1006  0.7074 -0.2974
  298EMC     O3 3716   0.560   0.677   3.859 -0.0887 -0.0915  0.2496
  298EMC     H1 3717   0.667   0.382   3.927 -1.0257 -0.8133 -1.2691
  298EMC     H2 3718   0.497   0.435   3.904 -0.1894  0.4980  0.5809
  298EMC     H3 3719   0.543   0.351   4.048  2.0903  0.3443  0.5975
  298EMC     C4 3720   0.698   0.948   3.991 -0.2420  0.1745 -0.1221
  298EMC     H4 3721   0.757   0.810   3.847 -0.7773  1.5823  0.4742
  298EMC     H5 3722   0.866   0.828   3.994 -1.8640  2.3313  4.6731
  298EMC     H6 3723   0.599   0.960   3.948 -0.4072  2.4282  0.7227
  298EMC     H7 3724   0.764   1.031   3.964  3.2845 -2.4122 -0.1060
  298EMC     H8 3725   0.697   0.966   4.099 -0.7697  2.7284 -0.4773
  299EMC     C1 3726   3.035   4.305   0.574  0.5334 -0.3866 -0.2974
  299EMC     C2 3727   3.344   4.063   0.658 -0.7150  0.4634 -0.5327
  299EMC     C3 3728   3.176   4.215   0.745 -0.6239 -0.5490  0.9564
  299EMC     O1 3729   3.078   4.303   0.707  0.3164  0.4290  0.4300
  299EMC     O2 3730   3.210   4.124   0.656 -0.5348  0.0422  0.4884
  299EMC     O3 3731   3.236   4.234   0.851 -0.0209  0.3135 -1.1016
  299EMC     H1 3732   3.000   4.206   0.544  1.0573  0.0912 -2.6881
  299EMC     H2 3733   3.121   4.328   0.511  0.4194 -0.0751 -0.3403
  299EMC     H3 3734   2.966   4.385   0.548 -0.0397 -0.0525  2.0647
  299EMC     C4 3735   3.338   3.924   0.586 -0.5256 -0.4994  0.2953
  299EMC     H4 3736   3.367   4.052   0.764 -2.6882 -1.0463 -0.1978
  299EMC     H5 3737   3.419   4.122   0.606 -0.4707 -0.6160 -1.4426
  299EMC     H6 3738   3.308   3.936   0.481  1.9337 -0.0249 -0.4165
  299EMC     H7 3739   3.272   3.857   0.640  0.7129 -1.9214  0.1205
  299EMC     H8 3740   3.436   3.878   0.596  0.1807  1.0929  1.0288
  300EMC     C1 3741   2.931   0.914   1.748  0.4786 -0.0541  0.6539
  300EMC     C2 3742   3.170   0.643   1.908  0.2945 -0.2913  0.0331
  300EMC     C3 3743   3.013   0.815   1.937 -0.2991  0.2083 -0.5138
  300EMC     O1 3744   2.922   0.809   1.837  0.1684  0.0429  0.3509
  300EMC     O2 3745   3.033   0.681   1.926 -0.3652 -0.4127  0.1967
  300EMC     O3 3746   3.100   0.900   1.959 -0.3360  0.0875  0.2922
  300EMC     H1 3747   3.026   0.926   1.696 -1.1998  1.3578 -2.3590
  300EMC     H2 3748   2.905   1.008   1.797  0.2630  1.1601 -1.6637
  300EMC     H3 3749   2.847   0.899   1.680  0.9802  1.9052 -0.4754
  300EMC     C4 3750   3.179   0.500   1.879  0.2764  0.2204  1.0640
  300EMC     H4 3751   3.214   0.663   2.005  0.7304  2.1318 -0.5855
  300EMC     H5 3752   3.219   0.695   1.825  1.6150  0.9797  1.5462
  300EMC     H6 3753   3.281   0.481   1.843 -0.7177  1.3881 -2.8529
  300EMC     H7 3754   3.126   0.481   1.786  0.8855 -1.6701  1.0519
  300EMC     H8 3755   3.139   0.433   1.954 -1.8940 -0.4245 -0.5708
  301EMC     C1 3756   1.507   0.029   1.569  0.2730  0.3300  0.3874
  301EMC     C2 3757   1.949   4.490   1.577 -0.6275 -0.2036  0.7046
  301EMC     C3 3758   1.729   0.016   1.489  0.3261  0.0052 -0.9501
  301EMC     O1 3759   1.639   0.081   1.554  0.1707 -0.7062 -0.4497
  301EMC     O2 3760   1.843   0.057   1.548 -0.7075 -0.3376 -0.5766
  301EMC     O3 3761   1.712   4.418   1.437  0.2407 -0.1057 -0.4470
  301EMC     H1 3762   1.456   0.094   1.641  0.2885 -1.7217  2.3648
  301EMC     H2 3763   1.507   4.440   1.614  0.8277 -0.4659 -1.3048
  301EMC     H3 3764   1.452   0.027   1.475  2.7821  1.3834 -1.1872
  301EMC     C4 3765   2.048   0.030   1.676  0.5641 -0.3039  0.3362
  301EMC     H4 3766   1.997   4.462   1.483 -2.4252 -2.1794  0.2818
  301EMC     H5 3767   1.917   4.394   1.618 -0.7530 -1.7855 -2.6750
  301EMC     H6 3768   2.011   0.109   1.741  1.0107  0.9890 -0.9344
  301EMC     H7 3769   2.134   0.069   1.622  1.0390 -0.8470  0.6829
  301EMC     H8 3770   2.080   4.460   1.744  1.8947 -0.4657 -0.4508
  302EMC     C1 3771   0.797   0.388   3.295  0.2681  0.8029  0.1614
  302EMC     C2 3772   0.801   0.550   3.632  0.0889  0.8036  0.3203
  302EMC     C3 3773   0.801   0.606   3.394  0.3286  0.2201 -0.8787
  302EMC     O1 3774   0.860   0.492   3.361  0.7553 -0.0472  0.1148
  302EMC     O2 3775   0.863   0.585   3.512  0.2328 -0.2941  0.3026
  302EMC     O3 3776   0.679   0.629   3.388  0.4189 -0.1005  0.1729
  302EMC     H1 3777   0.844   0.291   3.309 -0.6541  0.4522  0.9732
  302EMC     H2 3778   0.790   0.411   3.189  0.7346 -0.7048 -0.2201
  302EMC     H3 3779   0.693   0.382   3.325  0.6074  0.4711  1.3197
  302EMC     C4 3780   0.912   0.562   3.744  0.0711  0.0034  0.1012
  302EMC     H4 3781   0.765   0.447   3.625  1.4693  0.3048  0.1888
  302EMC     H5 3782   0.716   0.610   3.662 -0.0900  1.2806 -1.0822
  302EMC     H6 3783   0.949   0.664   3.753 -1.1030  0.4158  0.4798
  302EMC     H7 3784   0.989   0.486   3.731 -1.2646 -1.3732  0.0456
  302EMC     H8 3785   0.864   0.535   3.838  1.2827  1.5807  1.2314
  303EMC     C1 3786   3.484   3.240   2.830 -0.7944  0.4324  0.0282
  303EMC     C2 3787   3.168   3.240   2.655  0.5496  0.2894 -0.3741
  303EMC     C3 3788   3.378   3.359   2.658  0.1274  0.2426 -0.2758
  303EMC     O1 3789   3.448   3.252   2.700  0.7110  0.1093 -0.0916
  303EMC     O2 3790   3.301   3.259   2.604 -0.7681  0.7770 -0.2237
  303EMC     O3 3791   3.345   3.456   2.728  0.5587 -0.6225  0.6170
  303EMC     H1 3792   3.562   3.311   2.856  0.4889 -1.2580  1.0036
  303EMC     H2 3793   3.532   3.147   2.860  2.5105  2.1146  0.4812
  303EMC     H3 3794   3.392   3.251   2.888  0.7542  0.3495  2.6654
  303EMC     C4 3795   3.106   3.136   2.562 -0.3730  0.3432 -0.2817
  303EMC     H4 3796   3.116   3.335   2.666  2.0143  1.0987 -0.2307
  303EMC     H5 3797   3.185   3.199   2.755  0.4214 -1.0711 -0.8909
  303EMC     H6 3798   3.107   3.174   2.460 -0.0354 -0.4735 -0.5905
  303EMC     H7 3799   3.003   3.123   2.595 -0.5544  0.4937 -0.7928
  303EMC     H8 3800   3.149   3.036   2.572 -2.7008 -0.7390 -0.5981
  304EMC     C1 3801   1.060   4.421   2.744 -0.5032 -0.2516 -0.1741
  304EMC     C2 3802   0.837   4.262   3.088 -0.4521  0.0665  0.0076
  304EMC     C3 3803   1.011   4.264   2.925 -0.4720  0.2681 -0.2750
  304EMC     O1 3804   1.062   4.382   2.884 -0.0027 -1.0078  0.2217
  304EMC     O2 3805   0.974   4.305   3.047 -0.0133  0.3495  0.1584
  304EMC     O3 3806   0.947   4.186   2.851  0.1891 -0.7159  0.4404
  304EMC     H1 3807   1.123   4.357   2.682  0.6678 -0.8229  1.5320
  304EMC     H2 3808   1.092   0.015   2.738 -0.6645 -0.2493 -1.1282
  304EMC     H3 3809   0.955   4.430   2.717 -0.2835  0.3692 -0.8451
  304EMC     C4 3810   0.858   4.266   3.245  0.3211 -0.7734 -0.2579
  304EMC     H4 3811   0.830   4.156   3.064 -0.5722  0.3519 -1.3254
  304EMC     H5 3812   0.749   4.316   3.053 -0.7962  1.0598  2.2347
  304EMC     H6 3813   0.875   4.369   3.274 -0.7200 -0.8127  0.5349
  304EMC     H7 3814   0.944   4.207   3.277  0.7688 -1.3972 -2.4325
  304EMC     H8 3815   0.772   4.232   3.302  0.0615 -1.9339 -1.2857
  305EMC     C1 3816   0.686   0.157   1.834 -0.2466  0.2761  0.8054
  305EMC     C2 3817   0.612   4.455   1.437 -0.6513 -0.6358 -1.1172
  305EMC     C3 3818   0.690   0.060   1.628 -0.4278 -0.5557  0.1900
  305EMC     O1 3819   0.636   0.155   1.704 -0.5592 -0.6285 -0.3179
  305EMC     O2 3820   0.607   0.059   1.533  0.5774 -0.0035  0.6201
  305EMC     O3 3821   0.765   4.475   1.657 -0.0427 -0.4304  0.6598
  305EMC     H1 3822   0.659   0.253   1.879  1.7667  1.6194 -0.6336
  305EMC     H2 3823   0.793   0.133   1.835 -0.1917  0.4461 -0.0040
  305EMC     H3 3824   0.656   0.070   1.892 -1.2984  0.1544  0.0948
  305EMC     C4 3825   0.499   4.457   1.336 -0.4140 -0.0466 -0.0079
  305EMC     H4 3826   0.608   4.356   1.483  1.6527  0.0189  0.6970
  305EMC     H5 3827   0.708   4.458   1.385 -1.3590 -0.1511 -2.4237
  305EMC     H6 3828   0.529   4.389   1.256  0.7436  1.0203 -0.5086
  305EMC     H7 3829   0.480   0.044   1.290  0.2643 -0.1618 -0.5506
  305EMC     H8 3830   0.403   4.422   1.374 -0.8291  2.2900  1.2875
  306EMC     C1 3831   1.872   1.683   2.109  0.5069  0.1803 -0.8558
  306EMC     C2 3832   1.957   1.673   2.495  0.1805  0.1744  0.4799
  306EMC     C3 3833   1.826   1.574   2.321  0.5846 -0.3174  0.5235
  306EMC     O1 3834   1.814   1.677   2.239  0.3338 -0.3872  0.8726
  306EMC     O2 3835   1.854   1.692   2.392  0.3648  0.6652  0.6330
  306EMC     O3 3836   1.911   1.486   2.301 -0.1764  0.5120 -0.2861
  306EMC     H1 3837   1.864   1.593   2.048  0.1889  0.1284 -0.7378
  306EMC     H2 3838   1.978   1.695   2.134  0.8763 -2.3536 -0.9034
  306EMC     H3 3839   1.826   1.762   2.051 -0.9829 -0.6737 -0.8779
  306EMC     C4 3840   1.990   1.811   2.555 -0.1339 -0.4487  0.0356
  306EMC     H4 3841   2.046   1.638   2.443 -0.5146 -0.0250 -0.5965
  306EMC     H5 3842   1.922   1.600   2.568 -0.9421  0.4707  0.2576
  306EMC     H6 3843   2.014   1.882   2.476 -0.3680 -3.0482 -2.5371
  306EMC     H7 3844   2.081   1.794   2.613  0.6940 -0.3458 -1.2024
  306EMC     H8 3845   1.919   1.849   2.629  1.1486 -0.6076  1.4104
  307EMC     C1 3846   0.807   2.184   1.072 -0.4556  0.5043  0.5689
  307EMC     C2 3847   0.685   2.174   1.368 -0.2941 -0.2472  0.6508
  307EMC     C3 3848   0.830   2.329   1.264  0.0039  0.5441 -0.1125
  307EMC     O1 3849   0.786   2.303   1.147  0.0574  0.1997  0.1956
  307EMC     O2 3850   0.702   2.302   1.303 -0.2925  0.0450 -0.2596
  307EMC     O3 3851   0.927   2.277   1.324  0.1709 -0.5845 -0.0588
  307EMC     H1 3852   0.826   2.201   0.966  0.9888 -4.2302 -0.1193
  307EMC     H2 3853   0.712   2.131   1.069 -0.7985  1.1193  0.2384
  307EMC     H3 3854   0.892   2.127   1.109 -0.5027 -0.4125 -0.6909
  307EMC     C4 3855   0.540   2.146   1.345  0.4032 -0.2159  0.7611
  307EMC     H4 3856   0.705   2.188   1.474 -2.7788  1.8179  0.9333
  307EMC     H5 3857   0.743   2.094   1.322 -0.6621  0.1605 -0.5705
  307EMC     H6 3858   0.480   2.224   1.392 -0.3631 -0.4057  0.1071
  307EMC     H7 3859   0.507   2.048   1.378 -1.1370 -0.4942 -1.4006
  307EMC     H8 3860   0.529   2.143   1.237  3.2058 -0.5946  0.4053
  308EMC     C1 3861   0.671   3.703   0.337 -0.2578  1.0074 -0.3063
  308EMC     C2 3862   1.066   3.595   0.460 -0.2821  0.2961 -0.0893
  308EMC     C3 3863   0.910   3.680   0.320 -0.4870  0.7608 -0.0176
  308EMC     O1 3864   0.796   3.634   0.357  0.1056 -0.1147 -0.1946
  308EMC     O2 3865   0.936   3.590   0.413 -0.0513 -0.1845  0.5521
  308EMC     O3 3866   0.950   3.796   0.320  0.1135 -0.2934  0.1399
  308EMC     H1 3867   0.584   3.647   0.373  0.4710 -0.3973 -0.6848
  308EMC     H2 3868   0.663   3.712   0.229  3.4723 -0.5096 -0.8666
  308EMC     H3 3869   0.672   3.799   0.389 -0.3237  0.1245  1.3901
  308EMC     C4 3870   1.081   3.510   0.585  0.3329 -0.5347  0.6701
  308EMC     H4 3871   1.081   3.698   0.494  2.8065 -0.5372  1.4642
  308EMC     H5 3872   1.144   3.567   0.389 -1.7889  0.8704 -2.0483
  308EMC     H6 3873   0.993   3.516   0.649 -1.5182  1.2343 -1.8409
  308EMC     H7 3874   1.172   3.549   0.631 -0.2281  1.1969  0.3817
  308EMC     H8 3875   1.099   3.403   0.571 -3.0983 -0.8223 -3.3253
  309EMC     C1 3876   2.307   2.251   1.289 -0.3617 -0.7975  0.2730
  309EMC     C2 3877   1.940   2.079   1.383 -0.8042 -0.7117  0.5587
  309EMC     C3 3878   2.128   2.113   1.247 -0.5443  0.2249  0.1215
  309EMC     O1 3879   2.179   2.207   1.319  0.3183 -0.0165  0.0256
  309EMC     O2 3880   2.006   2.143   1.280 -0.1441 -0.6442 -0.6225
  309EMC     O3 3881   2.166   2.096   1.131  0.6841 -0.0687  0.0305
  309EMC     H1 3882   2.384   2.174   1.294  0.3071 -0.3800 -2.1820
  309EMC     H2 3883   2.342   2.331   1.354  1.9858  1.4504 -3.3973
  309EMC     H3 3884   2.324   2.300   1.193  0.0591 -0.7565  0.3664
  309EMC     C4 3885   1.799   2.140   1.394 -0.2898  0.3229  0.9729
  309EMC     H4 3886   1.989   2.088   1.480 -0.1557 -1.7015  0.3379
  309EMC     H5 3887   1.929   1.974   1.355  1.5009 -1.0778  0.8823
  309EMC     H6 3888   1.760   2.141   1.292  2.0593 -3.4611 -0.1698
  309EMC     H7 3889   1.804   2.242   1.430  2.0589  0.1218  1.3870
  309EMC     H8 3890   1.730   2.076   1.450  1.3672 -1.2521  1.3370
  310EMC     C1 3891   3.193   2.076   1.800  0.5567 -0.4225  0.8489
  310EMC     C2 3892   3.408   2.289   1.544  0.5292 -0.1475  0.1182
  310EMC     C3 3893   3.213   2.285   1.687 -0.2603 -0.3360  0.0550
  310EMC     O1 3894   3.254   2.202   1.783 -0.6597  0.3897 -0.2748
  310EMC     O2 3895   3.345   2.309   1.671 -0.3045  0.1233 -0.1984
  310EMC     O3 3896   3.133   2.253   1.596 -0.0560  0.2214  0.1206
  310EMC     H1 3897   3.212   2.013   1.714  2.8096 -0.0420  1.0041
  310EMC     H2 3898   3.085   2.084   1.813  0.6918  4.9703  1.0646
  310EMC     H3 3899   3.227   2.029   1.892 -1.8588  2.1488  3.2478
  310EMC     C4 3900   3.557   2.311   1.550  0.8363 -0.3633 -0.1080
  310EMC     H4 3901   3.367   2.363   1.475 -1.0604 -1.4562 -0.4024
  310EMC     H5 3902   3.380   2.197   1.494  0.9081  0.9393 -2.2379
  310EMC     H6 3903   3.608   2.255   1.628  2.9432 -2.2721 -2.6776
  310EMC     H7 3904   3.587   2.412   1.581 -0.2370 -0.6849  2.2660
  310EMC     H8 3905   3.608   2.267   1.465  1.0337 -0.3692  0.0119
  311EMC     C1 3906   3.431   0.253   2.530  0.2974 -0.1196  0.1882
  311EMC     C2 3907   3.371   0.233   2.882 -0.6181 -0.8709 -0.6415
  311EMC     C3 3908   3.505   0.115   2.714 -0.3718 -0.1229 -0.0744
  311EMC     O1 3909   3.521   0.221   2.634  0.1200 -0.3336  0.4299
  311EMC     O2 3910   3.493   0.215   2.818 -0.2617 -0.7533 -0.4294
  311EMC     O3 3911   3.429   0.021   2.690  0.1913  0.1430  0.5015
  311EMC     H1 3912   3.352   0.305   2.584  0.9857 -0.0669  1.1685
  311EMC     H2 3913   3.387   0.169   2.476 -0.4751  0.7691 -0.6084
  311EMC     H3 3914   3.473   0.329   2.464 -2.6333  0.4096 -1.2640
  311EMC     C4 3915   3.382   0.317   3.010  0.5044  0.4143 -0.4697
  311EMC     H4 3916   3.338   0.140   2.929 -1.2938  0.4549  1.6719
  311EMC     H5 3917   3.303   0.273   2.806 -0.8404 -1.4146 -0.7345
  311EMC     H6 3918   3.395   0.420   2.975 -0.7271  0.2021 -1.6356
  311EMC     H7 3919   3.460   0.282   3.078 -0.8787 -1.2823  0.3193
  311EMC     H8 3920   3.288   0.324   3.065  0.7795 -0.0260  0.0678
  312EMC     C1 3921   0.635   2.051   2.347 -0.1413 -0.1778  1.1764
  312EMC     C2 3922   0.660   1.680   2.439  1.0897 -0.0572  0.4209
  312EMC     C3 3923   0.528   1.883   2.463  0.3610  0.0744 -0.7720
  312EMC     O1 3924   0.563   1.924   2.346 -0.0541  0.4905 -0.0094
  312EMC     O2 3925   0.550   1.761   2.399  0.1900  0.4420 -0.0017
  312EMC     O3 3926   0.582   1.920   2.571 -0.7228  0.0073 -0.5272
  312EMC     H1 3927   0.720   2.040   2.414  3.6504  0.3607 -3.0610
  312EMC     H2 3928   0.567   2.136   2.354  0.9379  0.9869 -1.2689
  312EMC     H3 3929   0.683   2.065   2.250  0.5799 -0.0893  1.5423
  312EMC     C4 3930   0.623   1.535   2.398  0.3601 -0.4071  0.3802
  312EMC     H4 3931   0.689   1.693   2.543  1.0658 -1.7776  0.6712
  312EMC     H5 3932   0.743   1.728   2.387  2.4814 -1.7122  1.0036
  312EMC     H6 3933   0.544   1.488   2.455  0.0192  0.7973  0.9393
  312EMC     H7 3934   0.707   1.474   2.432 -0.7192 -0.3997  3.2972
  312EMC     H8 3935   0.607   1.525   2.291 -5.0513 -0.8573  0.9934
  313EMC     C1 3936   1.550   0.592   2.024 -0.3075  0.4896 -0.5703
  313EMC     C2 3937   1.520   0.403   1.695  0.5036  0.1664  0.3325
  313EMC     C3 3938   1.623   0.389   1.915 -0.3189 -0.5508  0.1802
  313EMC     O1 3939   1.528   0.460   1.971  0.4234  0.2332 -0.0399
  313EMC     O2 3940   1.510   0.376   1.838 -0.1313  0.1397  0.0307
  313EMC     O3 3941   1.724   0.444   1.869  0.2084 -0.3086 -0.2518
  313EMC     H1 3942   1.644   0.606   2.077 -1.0492  0.0614  0.9096
  313EMC     H2 3943   1.478   0.631   2.096  0.1156  1.0272 -0.4344
  313EMC     H3 3944   1.543   0.666   1.944  0.3916  1.3963  0.1814
  313EMC     C4 3945   1.384   0.393   1.626  0.5180  0.8620  0.5459
  313EMC     H4 3946   1.588   0.333   1.646 -0.7088 -0.5062 -0.4321
  313EMC     H5 3947   1.569   0.499   1.675 -0.0741  0.2949 -0.5079
  313EMC     H6 3948   1.385   0.412   1.519 -0.3864 -0.8100  0.2202
  313EMC     H7 3949   1.312   0.469   1.656 -0.5607  1.6033 -3.3176
  313EMC     H8 3950   1.338   0.295   1.641 -0.1826  1.2408  0.9404
  314EMC     C1 3951   1.362   1.744   2.170 -0.4734  0.1583 -0.0393
  314EMC     C2 3952   1.476   2.119   2.104 -0.7439 -0.5780 -0.3454
  314EMC     C3 3953   1.526   1.890   2.082  0.3728 -0.0463  0.0181
  314EMC     O1 3954   1.406   1.830   2.070 -0.6338  0.2802  0.4703
  314EMC     O2 3955   1.447   1.995   2.055 -0.7111  0.1562  0.4451
  314EMC     O3 3956   1.594   1.869   2.185  0.3307  0.4415 -0.7379
  314EMC     H1 3957   1.442   1.680   2.207 -0.5513 -1.6380 -2.7477
  314EMC     H2 3958   1.271   1.696   2.134  0.1104 -2.1460  1.3691
  314EMC     H3 3959   1.327   1.807   2.252  0.6875  1.5941 -0.6047
  314EMC     C4 3960   1.348   2.208   2.091  0.1322 -0.2739  0.2891
  314EMC     H4 3961   1.557   2.164   2.046 -0.5002 -1.1121 -0.4324
  314EMC     H5 3962   1.501   2.109   2.209  0.4541  1.1703 -0.4142
  314EMC     H6 3963   1.273   2.179   2.163  2.9613 -0.6111  3.3406
  314EMC     H7 3964   1.303   2.212   1.992  0.6685 -0.8546  0.0124
  314EMC     H8 3965   1.373   2.311   2.117  0.8369 -0.3041 -0.2329
  315EMC     C1 3966   0.963   4.235   3.555 -0.1353 -0.1775 -0.1902
  315EMC     C2 3967   0.824   3.915   3.730  0.4767 -0.3246 -0.3802
  315EMC     C3 3968   0.920   4.001   3.541  0.1311  0.2967  0.1796
  315EMC     O1 3969   0.875   4.126   3.550 -0.0323 -1.1502  0.2157
  315EMC     O2 3970   0.833   4.021   3.631  0.4876  0.1724 -0.3072
  315EMC     O3 3971   1.033   3.968   3.560 -0.5722  0.4208 -0.5206
  315EMC     H1 3972   0.933   4.320   3.493  2.5109  1.9478  1.2103
  315EMC     H2 3973   1.068   4.209   3.538 -0.1857  0.1674 -1.0570
  315EMC     H3 3974   0.958   4.276   3.656  2.1219  1.3423 -0.6127
  315EMC     C4 3975   0.692   3.931   3.788 -0.4654 -1.1679  0.8958
  315EMC     H4 3976   0.891   3.927   3.816 -0.2570  1.1305  0.0126
  315EMC     H5 3977   0.828   3.817   3.683 -0.2675 -0.0582 -1.0177
  315EMC     H6 3978   0.611   3.930   3.714  0.1124  3.5996 -0.1043
  315EMC     H7 3979   0.696   4.012   3.861  0.9176  0.0976 -0.4950
  315EMC     H8 3980   0.669   3.845   3.851 -0.2791 -1.1969  0.9249
  316EMC     C1 3981   3.057   4.079   2.944  0.0512  0.3570 -0.1784
  316EMC     C2 3982   3.370   4.134   2.667  0.1340 -0.8627 -0.0623
  316EMC     C3 3983   3.136   4.104   2.717  0.7729  0.2123  0.9714
  316EMC     O1 3984   3.131   4.151   2.843 -0.4648  0.5453 -0.0997
  316EMC     O2 3985   3.268   4.085   2.744 -0.1971 -0.2584 -0.1023
  316EMC     O3 3986   3.088   4.173   2.623  0.1449  0.0226 -0.5894
  316EMC     H1 3987   3.043   4.146   3.029  0.4071  1.6668 -1.1210
  316EMC     H2 3988   3.112   3.990   2.973  2.0448  1.6413  0.1459
  316EMC     H3 3989   2.953   4.067   2.912 -0.1872  1.5428  0.0659
  316EMC     C4 3990   3.495   4.056   2.691  0.5239 -0.0174  0.5689
  316EMC     H4 3991   3.390   4.235   2.702 -1.8141 -0.4563 -0.0291
  316EMC     H5 3992   3.357   4.135   2.558 -1.8021  4.2378 -0.0805
  316EMC     H6 3993   3.579   4.080   2.626 -1.6377  2.5793 -1.5344
  316EMC     H7 3994   3.471   3.953   2.665 -0.9591  0.1681  1.0732
  316EMC     H8 3995   3.522   4.078   2.794 -0.2231 -0.9494  0.9827
  317EMC     C1 3996   3.001   3.416   0.935  0.2279  0.1458  0.2747
  317EMC     C2 3997   2.721   3.121   0.796 -0.7792  0.5838 -0.3917
  317EMC     C3 3998   2.788   3.295   0.927 -0.4223  0.0651  0.3593
  317EMC     O1 3999   2.917   3.317   0.882 -0.1393  0.3145 -0.3295
  317EMC     O2 4000   2.754   3.174   0.922  0.5934  0.4771  1.2714
  317EMC     O3 4001   2.750   3.367   1.018  0.4770 -0.2867 -0.2811
  317EMC     H1 4002   3.100   3.412   0.890 -0.2889 -1.8470 -0.7658
  317EMC     H2 4003   2.996   3.401   1.043 -1.0356  0.0309  0.2144
  317EMC     H3 4004   2.953   3.511   0.910 -0.4425 -0.7380 -2.0766
  317EMC     C4 4005   2.738   2.969   0.814 -0.5782 -0.7802 -0.4357
  317EMC     H4 4006   2.792   3.159   0.721  0.6291  0.3819  0.8010
  317EMC     H5 4007   2.618   3.141   0.767 -0.4344  2.1792 -0.6346
  317EMC     H6 4008   2.669   2.932   0.889 -1.9943 -0.3824 -1.5060
  317EMC     H7 4009   2.842   2.955   0.846 -0.0384  0.9852 -1.2734
  317EMC     H8 4010   2.727   2.917   0.719  1.4753  0.1912 -1.2879
  318EMC     C1 4011   4.384   2.243   4.157 -0.0612 -0.1746  0.8544
  318EMC     C2 4012   4.459   2.079   0.025  0.4075  0.1555 -0.0671
  318EMC     C3 4013   4.364   2.239   4.389 -0.0164  0.5757  0.3772
  318EMC     O1 4014   4.322   2.187   4.274 -0.1924  0.1000 -0.4199
  318EMC     O2 4015   4.356   2.123   4.450  0.9398  0.2708 -0.1894
  318EMC     O3 4016   4.453   2.317   4.409 -0.5964  0.7869  0.0080
  318EMC     H1 4017   4.491   2.236   4.175 -0.2607 -1.1886  1.7465
  318EMC     H2 4018   4.363   2.346   4.129 -0.0905 -0.7709 -1.5658
  318EMC     H3 4019   4.355   2.187   4.068 -0.4238 -0.8806  1.4090
  318EMC     C4 4020   4.458   1.926   0.045  0.1178  0.6241  0.3587
  318EMC     H4 4021   4.449   2.126   0.123 -1.9036  2.0081 -1.0730
  318EMC     H5 4022   0.047   2.106   4.498 -0.4483  1.7781 -1.2690
  318EMC     H6 4023   4.385   1.896   0.120 -0.4569 -1.1095 -0.8195
  318EMC     H7 4024   0.044   1.888   0.078 -0.0661  0.3493  0.5799
  318EMC     H8 4025   4.444   1.869   4.463 -1.7983 -1.8288  2.0336
  319EMC     C1 4026   1.290   0.157   0.161 -0.6667 -0.4008 -1.2074
  319EMC     C2 4027   1.589   0.428   0.368 -0.5944 -0.1834  0.4387
  319EMC     C3 4028   1.441   0.342   0.210 -0.5142  0.9720 -0.2299
  319EMC     O1 4029   1.421   0.214   0.175  0.2762  0.2051 -0.2915
  319EMC     O2 4030   1.540   0.310   0.294  0.0629 -0.8913  0.2501
  319EMC     O3 4031   1.345   0.419   0.234 -0.1762 -0.2433 -0.7198
  319EMC     H1 4032   1.298   0.061   0.109  2.2776 -0.6991 -0.3465
  319EMC     H2 4033   1.229   0.234   0.113  1.7013  1.6264 -1.1430
  319EMC     H3 4034   1.247   0.127   0.256 -1.4225  2.7050 -0.4421
  319EMC     C4 4035   1.720   0.390   0.438 -0.0519 -0.2939 -0.6405
  319EMC     H4 4036   1.512   0.460   0.438 -1.5970 -2.9206  0.7389
  319EMC     H5 4037   1.601   0.512   0.300  0.7766 -0.1570  0.6926
  319EMC     H6 4038   1.741   0.465   0.514 -2.5710 -0.6275  0.5129
  319EMC     H7 4039   1.789   0.397   0.354  0.5482  1.3592 -0.0369
  319EMC     H8 4040   1.706   0.295   0.490 -1.7309  1.0146  1.4737
  320EMC     C1 4041   3.666   0.485   2.327  0.5600 -0.0356 -0.8962
  320EMC     C2 4042   3.791   0.019   2.287  0.0539 -0.6098  0.8396
  320EMC     C3 4043   3.746   0.253   2.306 -0.4101  0.3798  0.3783
  320EMC     O1 4044   3.651   0.350   2.279 -0.3635  0.2296  0.0683
  320EMC     O2 4045   3.703   0.129   2.280 -0.0460 -0.1714 -0.4389
  320EMC     O3 4046   3.854   0.277   2.355 -0.4527 -0.3975 -0.1287
  320EMC     H1 4047   3.712   0.546   2.248  2.1565  2.2636  1.6280
  320EMC     H2 4048   3.713   0.503   2.423 -0.8728 -0.1550 -0.1479
  320EMC     H3 4049   3.573   0.539   2.342  0.1699 -1.3755  2.1994
  320EMC     C4 4050   3.712   4.417   2.346 -0.2388  0.1013  0.3945
  320EMC     H4 4051   3.883   0.039   2.342  0.3860  1.4050 -0.3340
  320EMC     H5 4052   3.821   4.510   2.183 -0.1418 -1.8570  0.9988
  320EMC     H6 4053   3.651   4.364   2.272 -0.9090  0.3434  0.7674
  320EMC     H7 4054   3.647   4.447   2.427 -1.1640 -1.1614  0.1407
  320EMC     H8 4055   3.786   4.348   2.388 -1.2840 -0.7230  0.9210
  321EMC     C1 4056   2.639   0.575   0.566  0.3848  0.2140  0.2777
  321EMC     C2 4057   2.960   0.878   0.688 -0.2253 -0.3990 -0.5289
  321EMC     C3 4058   2.781   0.764   0.592  0.4332 -0.3179 -0.1006
  321EMC     O1 4059   2.712   0.665   0.644  0.0580  0.0422 -0.2925
  321EMC     O2 4060   2.860   0.789   0.692 -0.4190  0.7372  0.6947
  321EMC     O3 4061   2.800   0.782   0.473 -0.4074 -0.1066 -0.1642
  321EMC     H1 4062   2.553   0.628   0.524  1.0304  1.4746  0.4928
  321EMC     H2 4063   2.610   0.485   0.620 -0.5037 -0.3963 -1.1848
  321EMC     H3 4064   2.697   0.557   0.476 -0.9460 -0.7682 -0.4135
  321EMC     C4 4065   3.013   0.893   0.834 -0.4318 -0.0552 -0.1508
  321EMC     H4 4066   2.918   0.971   0.650 -2.7224  0.0873  2.9761
  321EMC     H5 4067   3.036   0.854   0.614  0.3874  2.0986 -0.8312
  321EMC     H6 4068   3.091   0.969   0.842 -0.5393  0.2932 -1.9003
  321EMC     H7 4069   3.054   0.799   0.871 -0.1978  0.3222  0.5677
  321EMC     H8 4070   2.932   0.932   0.896  1.1452  0.3818  1.7410
  322EMC     C1 4071   3.773   2.236   4.181 -0.2517 -0.1962 -0.1104
  322EMC     C2 4072   3.959   2.314   3.863 -0.1226 -0.4958 -0.1081
  322EMC     C3 4073   3.921   2.145   4.020 -0.6253  0.0214 -0.1702
  322EMC     O1 4074   3.905   2.211   4.136  0.5698  0.0679 -0.4273
  322EMC     O2 4075   3.984   2.259   3.984 -0.1471  0.8606 -0.2773
  322EMC     O3 4076   3.834   2.086   3.952  0.3659 -0.1254  0.1048
  322EMC     H1 4077   3.773   2.265   4.286 -0.6301 -0.1221 -0.1284
  322EMC     H2 4078   3.734   2.135   4.172  2.5950 -1.6966  2.4690
  322EMC     H3 4079   3.727   2.313   4.118  1.2296  0.9718  0.1534
  322EMC     C4 4080   4.041   2.446   3.839  0.2673 -0.5284 -0.2183
  322EMC     H4 4081   3.852   2.332   3.846 -0.1211 -0.7766 -0.4334
  322EMC     H5 4082   3.989   2.239   3.789 -1.3851 -2.3541  1.1729
  322EMC     H6 4083   3.999   2.517   3.910 -1.9657 -0.5869 -1.3747
  322EMC     H7 4084   4.043   2.484   3.737  2.3051  0.7385  0.2475
  322EMC     H8 4085   4.144   2.433   3.873 -0.1539  0.3393  1.4965
  323EMC     C1 4086   2.244   3.459   1.004 -0.2442 -0.8813  0.4743
  323EMC     C2 4087   2.379   3.674   0.726  0.0510 -0.7145 -0.4479
  323EMC     C3 4088   2.393   3.454   0.822 -0.9945  0.3094  0.5210
  323EMC     O1 4089   2.273   3.440   0.867  0.2141 -0.6767 -0.4756
  323EMC     O2 4090   2.334   3.541   0.735  0.0356 -0.8995  0.1343
  323EMC     O3 4091   2.489   3.468   0.898 -0.2184  0.5337  0.4864
  323EMC     H1 4092   2.180   3.388   1.056  0.3436 -1.2848  0.6432
  323EMC     H2 4093   2.189   3.552   1.020  0.0907 -0.4001 -1.0327
  323EMC     H3 4094   2.339   3.458   1.058  1.0670 -1.6858 -1.7424
  323EMC     C4 4095   2.505   3.696   0.643  0.0725 -0.1591 -0.1247
  323EMC     H4 4096   2.389   3.705   0.830  0.8595  3.0138 -1.4852
  323EMC     H5 4097   2.301   3.746   0.700  0.3374  0.0958  0.8218
  323EMC     H6 4098   2.533   3.800   0.655  1.4134 -0.2699 -1.8516
  323EMC     H7 4099   2.498   3.669   0.538  2.4190 -2.4652  0.1828
  323EMC     H8 4100   2.588   3.629   0.666  0.6789  0.2860 -0.9676
  324EMC     C1 4101   3.592   1.425   0.232 -0.5942  0.2028 -0.4980
  324EMC     C2 4102   3.485   1.704   0.012  0.4149 -0.3305 -0.5957
  324EMC     C3 4103   3.679   1.607   0.122 -0.1882 -0.2492 -0.1853
  324EMC     O1 4104   3.625   1.487   0.107 -0.7036 -0.4607 -0.5546
  324EMC     O2 4105   3.593   1.607   0.019 -0.4216 -0.6467 -0.3532
  324EMC     O3 4106   3.677   1.674   0.227  0.2729 -0.7206 -0.1863
  324EMC     H1 4107   3.587   1.317   0.219  1.4082 -0.0487  0.4089
  324EMC     H2 4108   3.510   1.457   0.296  0.4257  0.9281  0.4835
  324EMC     H3 4109   3.678   1.438   0.298  1.5469 -0.1463 -3.0528
  324EMC     C4 4110   3.426   1.712   4.380 -0.2395 -0.8886  0.3178
  324EMC     H4 4111   3.514   1.802   0.050 -2.6253 -0.0060  1.1864
  324EMC     H5 4112   3.416   1.685   0.095  1.8274  0.8701  0.9440
  324EMC     H6 4113   3.468   1.796   4.324 -2.2535  0.9258  1.3685
  324EMC     H7 4114   3.320   1.729   4.398  0.0827  2.5009 -0.2964
  324EMC     H8 4115   3.460   1.631   4.316  0.3819  0.3456 -0.9725
  325EMC     C1 4116   1.499   3.123   0.076 -0.3276  0.4765  0.0715
  325EMC     C2 4117   1.505   3.598   0.094 -0.5486  0.5746 -0.2148
  325EMC     C3 4118   1.544   3.346   0.101  0.6070 -0.5832  0.2186
  325EMC     O1 4119   1.495   3.247   0.022 -0.1612  0.0131  0.2984
  325EMC     O2 4120   1.502   3.463   0.039 -0.7912 -0.0545  0.1099
  325EMC     O3 4121   1.639   3.344   0.177  0.1806  0.4157 -0.1155
  325EMC     H1 4122   1.457   3.118   0.177 -1.3365 -0.5619 -0.3710
  325EMC     H2 4123   1.606   3.104   0.082 -0.4353 -0.0885  0.2560
  325EMC     H3 4124   1.463   3.047   0.007  1.3156 -0.3778  0.0924
  325EMC     C4 4125   1.548   3.695   4.498 -0.1383  0.0907  0.1059
  325EMC     H4 4126   1.578   3.604   0.175  0.2554 -0.6107 -0.8203
  325EMC     H5 4127   1.407   3.620   0.134 -0.5765 -2.2168  1.4623
  325EMC     H6 4128   1.648   3.666   4.465  0.2160  0.6609  0.6681
  325EMC     H7 4129   1.550   3.797   0.025  1.4643  1.1171 -2.5649
  325EMC     H8 4130   1.504   3.709   4.399  0.1684 -1.9748 -0.3764
  326EMC     C1 4131   0.413   0.364   0.663  0.8696 -0.4247  0.7046
  326EMC     C2 4132   0.211   0.093   0.415  0.4186 -0.7314  0.4391
  326EMC     C3 4133   0.363   0.143   0.593  0.4508 -0.3562 -0.7412
  326EMC     O1 4134   0.320   0.253   0.662 -0.9342 -0.0410 -0.1171
  326EMC     O2 4135   0.231   0.112   0.554  0.2005 -0.7996 -0.1728
  326EMC     O3 4136   0.465   0.134   0.523  0.3898 -0.1893 -0.3653
  326EMC     H1 4137   0.387   0.435   0.741 -2.8294 -1.7196  0.8507
  326EMC     H2 4138   0.403   0.418   0.569 -0.6922  1.2553  1.7441
  326EMC     H3 4139   0.517   0.331   0.667  1.1306  0.0929 -0.9115
  326EMC     C4 4140   0.069   0.032   0.400 -0.5270 -0.8013 -0.6280
  326EMC     H4 4141   0.285   0.032   0.364 -1.2382 -0.4940 -2.4437
  326EMC     H5 4142   0.224   0.194   0.375  3.0763 -1.2526 -0.1843
  326EMC     H6 4143   0.041   4.477   0.484 -1.0408 -0.0166 -0.1754
  326EMC     H7 4144   0.058   4.485   0.308 -2.1272 -0.6845 -0.5433
  326EMC     H8 4145   0.008   0.122   0.402  3.5623  2.4240  3.8797
  327EMC     C1 4146   3.437   0.877   2.424  0.5669  0.5714  0.9671
  327EMC     C2 4147   3.215   0.610   2.327 -0.3508  0.7765  0.0064
  327EMC     C3 4148   3.301   0.808   2.236  0.3266 -0.0150 -0.4470
  327EMC     O1 4149   3.313   0.875   2.353 -0.3087  0.3037 -0.2107
  327EMC     O2 4150   3.201   0.747   2.298  0.0790 -0.6311 -0.2636
  327EMC     O3 4151   3.400   0.750   2.192 -0.2982 -0.0922  0.5318
  327EMC     H1 4152   3.498   0.787   2.420  0.0445  0.2412  0.0266
  327EMC     H2 4153   3.415   0.887   2.530  2.3684  0.5435  1.3846
  327EMC     H3 4154   3.499   0.961   2.391  0.0027  0.2852 -0.9281
  327EMC     C4 4155   3.102   0.591   2.423  0.8674  1.2812  0.0425
  327EMC     H4 4156   3.307   0.577   2.377 -0.3401 -0.0171 -0.5239
  327EMC     H5 4157   3.208   0.542   2.242  1.7192 -2.6544  2.3223
  327EMC     H6 4158   3.005   0.611   2.377  0.8748 -0.2896 -0.7370
  327EMC     H7 4159   3.121   0.639   2.519  1.3232  1.4396 -0.1250
  327EMC     H8 4160   3.116   0.485   2.446  2.1013  1.9688  2.8638
  328EMC     C1 4161   3.944   0.981   2.229  0.2582  0.3550  0.0387
  328EMC     C2 4162   4.046   0.526   2.249 -0.4262 -0.5568 -0.1218
  328EMC     C3 4163   3.984   0.752   2.276 -0.2732  0.3666  0.1084
  328EMC     O1 4164   4.034   0.872   2.231  0.0950 -0.2078 -0.2150
  328EMC     O2 4165   4.081   0.664   2.242  0.6515  0.5160 -0.6476
  328EMC     O3 4166   3.880   0.718   2.327  0.9803 -0.5709 -0.1495
  328EMC     H1 4167   3.910   0.981   2.332  2.1642 -0.6173  0.7098
  328EMC     H2 4168   3.853   0.958   2.174  1.0928 -2.5100 -0.2997
  328EMC     H3 4169   3.992   1.076   2.204 -1.7407  1.7563  1.2326
  328EMC     C4 4170   4.150   0.439   2.178 -0.2576 -0.3036 -0.4043
  328EMC     H4 4171   3.952   0.516   2.195 -0.1949 -0.4114 -0.5541
  328EMC     H5 4172   4.024   0.499   2.353  0.8459  1.6548  0.7992
  328EMC     H6 4173   4.245   0.452   2.232  0.5059 -0.0597 -1.7515
  328EMC     H7 4174   4.153   0.453   2.070 -0.5630 -2.2264 -0.6827
  328EMC     H8 4175   4.125   0.334   2.193  0.7781 -0.4756  0.2298
  329EMC     C1 4176   3.449   1.889   2.703  0.4704 -0.4160 -0.0322
  329EMC     C2 4177   3.331   2.340   2.754 -0.2637 -0.3988 -0.1526
  329EMC     C3 4178   3.359   2.110   2.692 -0.2908  0.1580  0.3037
  329EMC     O1 4179   3.391   2.011   2.760  1.2509 -0.1443 -0.4212
  329EMC     O2 4180   3.362   2.203   2.780  0.0169  0.2974 -0.1247
  329EMC     O3 4181   3.362   2.120   2.570  0.1118 -0.0661 -0.4438
  329EMC     H1 4182   3.375   1.839   2.641 -0.3477 -1.4598  1.7313
  329EMC     H2 4183   3.486   1.825   2.783  3.1448 -0.9041 -1.5410
  329EMC     H3 4184   3.535   1.921   2.644  0.2666 -0.2788 -0.2566
  329EMC     C4 4185   3.389   2.426   2.864  0.3174 -0.6447  0.4642
  329EMC     H4 4186   3.222   2.337   2.743 -0.0528 -1.7980 -2.6628
  329EMC     H5 4187   3.370   2.365   2.655  0.6540 -1.3081 -0.0273
  329EMC     H6 4188   3.492   2.392   2.872  0.2759 -0.9672 -0.2721
  329EMC     H7 4189   3.351   2.405   2.964 -1.3308  0.7786  0.1945
  329EMC     H8 4190   3.383   2.532   2.841 -3.1690 -0.9769 -0.8089
  330EMC     C1 4191   0.066   1.263   2.466  0.6207  0.3078  0.4613
  330EMC     C2 4192   0.222   1.601   2.394  0.3215 -0.0588 -0.1629
  330EMC     C3 4193   0.198   1.375   2.303 -0.3894  0.0649  0.7010
  330EMC     O1 4194   0.080   1.350   2.353  1.2641  0.2699 -0.2373
  330EMC     O2 4195   0.146   1.505   2.322  0.0743  0.0745 -0.0665
  330EMC     O3 4196   0.311   1.349   2.355 -0.6746 -0.0021  0.5998
  330EMC     H1 4197   4.475   1.277   2.504 -0.4704 -0.1081 -2.0961
  330EMC     H2 4198   0.130   1.289   2.550 -1.3722 -4.2925  3.8767
  330EMC     H3 4199   0.080   1.159   2.435 -2.5450  0.2327 -1.1632
  330EMC     C4 4200   0.184   1.735   2.373 -0.4387  0.0415 -0.2703
  330EMC     H4 4201   0.330   1.608   2.382  0.4503 -0.7125  0.5316
  330EMC     H5 4202   0.198   1.579   2.498  0.6888  0.9057  0.1313
  330EMC     H6 4203   0.263   1.800   2.410 -0.9869  0.5294  0.0534
  330EMC     H7 4204   0.099   1.763   2.435  0.2515 -1.3171  1.3590
  330EMC     H8 4205   0.176   1.734   2.264  1.2562 -2.1843 -0.4511
  331EMC     C1 4206   1.204   2.949   0.622 -0.7997  0.0975  0.5955
  331EMC     C2 4207   1.520   2.744   0.751 -0.7196 -0.8295 -1.6035
  331EMC     C3 4208   1.293   2.804   0.782 -0.1467  0.2294 -0.3207
  331EMC     O1 4209   1.280   2.928   0.737  0.6319  0.3166  0.0741
  331EMC     O2 4210   1.425   2.836   0.794  0.4231 -0.1450 -0.0185
  331EMC     O3 4211   1.237   2.709   0.732  0.2445  0.2554  0.2014
  331EMC     H1 4212   1.259   2.999   0.542 -0.0356 -1.1952  0.2765
  331EMC     H2 4213   1.142   3.034   0.649 -1.2105  0.4357 -1.2959
  331EMC     H3 4214   1.151   2.865   0.576  1.4197 -1.0056 -0.0641
  331EMC     C4 4215   1.662   2.819   0.743  0.4632 -0.3487 -0.3582
  331EMC     H4 4216   1.485   2.710   0.653 -1.0184  1.1917 -2.2486
  331EMC     H5 4217   1.526   2.666   0.827  2.0111  1.6260  0.9432
  331EMC     H6 4218   1.738   2.748   0.710  1.7146  0.8464 -0.1252
  331EMC     H7 4219   1.681   2.856   0.844 -1.7227 -0.3250  0.1142
  331EMC     H8 4220   1.664   2.905   0.677 -0.3545  0.4788  0.6495
  332EMC     C1 4221   4.298   0.137   2.903 -0.3596 -0.0515  0.7357
  332EMC     C2 4222   4.507   4.371   3.006  0.3425 -0.5467  0.3625
  332EMC     C3 4223   4.305   4.493   3.066  0.3259  0.7088  0.2057
  332EMC     O1 4224   4.345   0.088   3.029 -0.3886 -0.0285 -0.1066
  332EMC     O2 4225   4.440   4.471   3.079 -0.4249  0.3800  0.3308
  332EMC     O3 4226   4.228   4.414   3.001 -0.6025  0.0327  0.5917
  332EMC     H1 4227   4.194   0.111   2.886  0.6566 -3.7572 -0.7066
  332EMC     H2 4228   4.356   0.095   2.821 -1.0329 -1.3879  0.9086
  332EMC     H3 4229   4.298   0.245   2.892  0.3458 -0.0927  0.2839
  332EMC     C4 4230   0.116   4.437   2.937 -0.2057  1.2741  0.6539
  332EMC     H4 4231   4.439   4.326   2.933  0.9418 -2.7635  1.1008
  332EMC     H5 4232   0.016   4.289   3.075  1.1890  0.4649  1.3654
  332EMC     H6 4233   0.184   4.485   3.007  0.0693  1.9598 -0.0624
  332EMC     H7 4234   0.074   4.509   2.867 -2.2393 -2.9843 -3.0169
  332EMC     H8 4235   0.165   4.357   2.881 -1.7753 -0.4454  1.6046
  333EMC     C1 4236   4.143   0.076   2.321  0.1532  0.6051 -0.3117
  333EMC     C2 4237   4.020   4.387   2.677 -0.2070  0.5758  0.1375
  333EMC     C3 4238   4.165   4.417   2.490  0.3005  0.6761 -0.2905
  333EMC     O1 4239   4.097   4.464   2.381 -0.1925 -0.1378  0.0087
  333EMC     O2 4240   4.045   4.387   2.535  0.0677  0.3001 -0.9723
  333EMC     O3 4241   4.252   4.480   2.552  0.8385 -0.6335  0.1198
  333EMC     H1 4242   4.137   0.161   2.390 -0.3145 -0.0421  0.4569
  333EMC     H2 4243   4.088   0.103   2.231 -2.3128 -1.7496  0.3655
  333EMC     H3 4244   4.250   0.072   2.300  0.5804 -0.4074  1.8273
  333EMC     C4 4245   3.885   4.333   2.704 -0.0335  0.4053  0.6644
  333EMC     H4 4246   4.045   4.481   2.725  2.3231 -0.7370  1.5826
  333EMC     H5 4247   4.097   4.330   2.729 -2.1596 -0.5254  1.9657
  333EMC     H6 4248   3.876   4.241   2.646  0.2731  0.2767  0.8176
  333EMC     H7 4249   3.814   4.407   2.669  0.6851  0.5903 -0.4576
  333EMC     H8 4250   3.871   4.317   2.811 -0.9072  0.8315  0.6185
  334EMC     C1 4251   3.524   0.783   0.449 -0.3619 -0.4278  0.5124
  334EMC     C2 4252   3.372   0.820   0.817 -0.3802 -0.1291 -0.1532
  334EMC     C3 4253   3.324   0.788   0.582 -0.3796  0.1801 -0.9863
  334EMC     O1 4254   3.457   0.798   0.572  0.4605 -0.3219 -0.0471
  334EMC     O2 4255   3.346   0.735   0.704  0.1000 -0.4854  0.6764
  334EMC     O3 4256   3.257   0.725   0.507 -0.2395  0.0929  0.2771
  334EMC     H1 4257   3.506   0.685   0.405 -3.1330  0.3437 -0.2365
  334EMC     H2 4258   3.630   0.772   0.475 -0.4306 -1.5227  0.3725
  334EMC     H3 4259   3.508   0.874   0.392 -2.0034 -0.7994  0.3271
  334EMC     C4 4260   3.476   0.777   0.924 -0.3663 -0.7228 -1.3775
  334EMC     H4 4261   3.276   0.833   0.867 -1.1118 -0.8280 -1.3263
  334EMC     H5 4262   3.401   0.920   0.783 -0.4245  0.2342  0.8325
  334EMC     H6 4263   3.572   0.761   0.877  0.5814  0.7545 -0.0547
  334EMC     H7 4264   3.446   0.685   0.974 -2.1529  1.1123  1.2409
  334EMC     H8 4265   3.483   0.848   1.007 -0.2528 -1.0167 -1.1370
  335EMC     C1 4266   2.394   0.799   3.622 -0.2447  0.7273 -0.3583
  335EMC     C2 4267   2.613   1.072   3.408  0.1876 -0.1357  0.1292
  335EMC     C3 4268   2.525   0.842   3.423  0.5236  0.7542  0.2036
  335EMC     O1 4269   2.411   0.864   3.501  0.7109 -0.4821  0.7556
  335EMC     O2 4270   2.508   0.971   3.389  0.1344 -0.7298 -0.5514
  335EMC     O3 4271   2.626   0.805   3.474 -0.7378  0.0527 -0.0074
  335EMC     H1 4272   2.454   0.708   3.628  0.2454  1.1248  4.1201
  335EMC     H2 4273   2.294   0.760   3.640 -0.2654  0.7391 -0.4469
  335EMC     H3 4274   2.419   0.862   3.707 -1.3937 -1.7065  1.9084
  335EMC     C4 4275   2.680   1.103   3.270 -0.2173 -0.7007 -0.2382
  335EMC     H4 4276   2.690   1.029   3.473 -0.9709 -3.0834 -0.3110
  335EMC     H5 4277   2.567   1.165   3.442 -1.8972 -0.6914 -1.0487
  335EMC     H6 4278   2.775   1.051   3.254  0.2307 -0.0601  0.3348
  335EMC     H7 4279   2.724   1.202   3.273  0.6439 -1.0766  0.0912
  335EMC     H8 4280   2.628   1.089   3.175  1.0494 -1.4606 -0.8589
  336EMC     C1 4281   2.288   1.553   0.842  0.1924 -0.2988 -0.2809
  336EMC     C2 4282   2.316   1.249   1.052 -0.1210 -0.3470 -0.7220
  336EMC     C3 4283   2.337   1.320   0.808 -0.3101  0.2086  0.1012
  336EMC     O1 4284   2.384   1.445   0.816 -0.6022 -0.2145 -0.2392
  336EMC     O2 4285   2.391   1.312   0.942 -0.1705  0.3874  0.0879
  336EMC     O3 4286   2.225   1.308   0.781 -0.5658  0.0288 -0.3993
  336EMC     H1 4287   2.225   1.574   0.756  1.3940  2.8103 -0.5292
  336EMC     H2 4288   2.342   1.644   0.870  2.5303 -1.8763  0.6651
  336EMC     H3 4289   2.222   1.533   0.926 -0.8177  0.8157 -0.7815
  336EMC     C4 4290   2.288   1.350   1.171  0.1347  0.1478  0.0822
  336EMC     H4 4291   2.362   1.160   1.092 -0.8887 -0.5709 -0.3201
  336EMC     H5 4292   2.227   1.209   1.003 -0.6647  0.5652 -0.5044
  336EMC     H6 4293   2.385   1.374   1.216  0.3762 -0.9341  0.1647
  336EMC     H7 4294   2.221   1.306   1.245 -2.2739  3.7848  0.3576
  336EMC     H8 4295   2.244   1.448   1.151  1.6513  0.9968  0.6256
  337EMC     C1 4296   3.863   2.663   0.678  0.2135  0.2595  0.7589
  337EMC     C2 4297   3.925   2.524   0.277  0.6499 -0.6834 -0.5934
  337EMC     C3 4298   3.991   2.569   0.501  0.4826  0.6309  0.3079
  337EMC     O1 4299   3.885   2.558   0.583  0.0858 -0.0380 -0.1405
  337EMC     O2 4300   3.921   2.496   0.414  0.3210  0.1945  0.3244
  337EMC     O3 4301   4.056   2.668   0.480 -0.1360 -0.5182 -0.0446
  337EMC     H1 4302   3.813   2.742   0.623  0.6804 -0.9325 -1.5287
  337EMC     H2 4303   3.953   2.693   0.731  0.2168 -2.3088  2.3659
  337EMC     H3 4304   3.800   2.619   0.755  0.3623 -1.2705  0.0619
  337EMC     C4 4305   3.795   2.500   0.205 -0.3559  0.4259 -0.2788
  337EMC     H4 4306   4.006   2.466   0.234  3.3400  2.3173  0.0025
  337EMC     H5 4307   3.949   2.630   0.262  1.0068 -0.7071 -0.2122
  337EMC     H6 4308   3.819   2.526   0.102 -0.9515 -1.0333 -0.8196
  337EMC     H7 4309   3.720   2.569   0.244  0.4243 -0.6843  3.4934
  337EMC     H8 4310   3.745   2.403   0.203 -2.1024  1.2574 -2.2250
  338EMC     C1 4311   3.426   0.586   1.563  0.3708  0.3937  0.3609
  338EMC     C2 4312   3.619   0.443   1.799  0.5737  0.2347 -0.6344
  338EMC     C3 4313   3.660   0.577   1.606  0.3698 -1.3343 -0.3186
  338EMC     O1 4314   3.540   0.627   1.627 -0.3679 -0.5589 -0.4551
  338EMC     O2 4315   3.625   0.571   1.731  0.0065  0.1034  0.1646
  338EMC     O3 4316   3.675   0.482   1.529  0.7692 -0.0515 -0.5238
  338EMC     H1 4317   3.391   0.485   1.586 -2.6784  1.4323  0.8333
  338EMC     H2 4318   3.443   0.593   1.456  2.2941 -2.5682  0.3690
  338EMC     H3 4319   3.334   0.644   1.575 -0.3689 -0.7511  0.4339
  338EMC     C4 4320   3.640   0.480   1.952 -0.1434  0.5160  0.2835
  338EMC     H4 4321   3.701   0.380   1.762 -0.4859 -1.7443  0.2037
  338EMC     H5 4322   3.530   0.386   1.773  0.9686 -0.6792 -0.0484
  338EMC     H6 4323   3.563   0.550   1.984  0.9386  1.9946 -0.2523
  338EMC     H7 4324   3.740   0.521   1.964 -0.4390  0.9454  1.3205
  338EMC     H8 4325   3.627   0.385   2.004  1.4733 -0.9897 -1.8660
  339EMC     C1 4326   1.539   0.597   2.731  0.6213 -0.3265  0.5468
  339EMC     C2 4327   1.424   0.498   3.072 -0.6127 -0.1266  0.3438
  339EMC     C3 4328   1.369   0.479   2.844  0.2292  0.0655 -0.4438
  339EMC     O1 4329   1.416   0.595   2.798  0.1850 -0.4185 -0.2175
  339EMC     O2 4330   1.355   0.543   2.962  0.6526 -0.2785  0.0941
  339EMC     O3 4331   1.425   0.370   2.833 -0.7601 -1.3161  0.0361
  339EMC     H1 4332   1.544   0.588   2.622  0.9726 -2.8029  0.6984
  339EMC     H2 4333   1.608   0.521   2.769 -0.4773 -1.2196  0.8253
  339EMC     H3 4334   1.589   0.690   2.757 -1.1190  0.5648  0.8484
  339EMC     C4 4335   1.537   0.599   3.118  0.4926  0.8863 -0.4374
  339EMC     H4 4336   1.470   0.402   3.050  1.2690  0.8559 -0.2060
  339EMC     H5 4337   1.352   0.467   3.148 -0.1635 -1.4287  0.2589
  339EMC     H6 4338   1.499   0.701   3.115 -2.9101 -0.2709 -1.5702
  339EMC     H7 4339   1.623   0.582   3.053 -0.4742  0.4688 -1.6591
  339EMC     H8 4340   1.561   0.557   3.216 -1.5297 -0.7876 -0.5839
  340EMC     C1 4341   2.179   4.421   0.184  0.0909 -0.4509 -1.1012
  340EMC     C2 4342   1.934   4.114   0.230  0.2623 -0.5827  0.1130
  340EMC     C3 4343   2.041   4.307   0.336 -0.8746 -0.2865 -0.2572
  340EMC     O1 4344   2.054   4.402   0.239 -0.2276  0.0477 -0.0863
  340EMC     O2 4345   1.941   4.258   0.263  0.5776  0.6508  0.5547
  340EMC     O3 4346   2.131   4.233   0.378 -0.4150 -0.5745  0.7570
  340EMC     H1 4347   2.207   4.324   0.143  0.9720 -0.9054  0.4785
  340EMC     H2 4348   2.252   4.433   0.264 -0.9241 -0.1177 -0.2020
  340EMC     H3 4349   2.198   4.502   0.114 -2.0126 -1.3829 -2.8835
  340EMC     C4 4350   1.829   4.081   0.123 -0.6813 -0.1774 -0.5097
  340EMC     H4 4351   1.906   4.075   0.328 -1.0475 -0.7760 -0.3095
  340EMC     H5 4352   2.034   4.077   0.210  1.5871  1.5261  2.2565
  340EMC     H6 4353   1.824   3.972   0.117 -1.4437 -0.2172  0.5985
  340EMC     H7 4354   1.851   4.119   0.024  0.9939  1.1977  0.3472
  340EMC     H8 4355   1.736   4.120   0.163 -1.2212 -0.9781 -0.9443
  341EMC     C1 4356   1.180   0.794   3.640  0.0031  0.5770  0.4520
  341EMC     C2 4357   1.529   0.757   3.476  0.2009 -0.3722  0.6771
  341EMC     C3 4358   1.406   0.868   3.655 -0.9064 -0.5332 -0.2152
  341EMC     O1 4359   1.314   0.769   3.676 -0.1215 -0.2910  0.2955
  341EMC     O2 4360   1.487   0.761   3.611 -0.2386  0.2471 -0.0337
  341EMC     O3 4361   1.381   0.969   3.594 -0.0343 -0.1492  0.5379
  341EMC     H1 4362   1.124   0.701   3.649  0.1152  0.3153 -1.3522
  341EMC     H2 4363   1.191   0.823   3.536  2.8021  0.5662  0.6806
  341EMC     H3 4364   1.141   0.877   3.700  1.2327  0.4928  1.4021
  341EMC     C4 4365   1.625   0.647   3.464 -0.3032  0.4547  0.3164
  341EMC     H4 4366   1.567   0.857   3.454 -2.9263  0.8861  0.5245
  341EMC     H5 4367   1.442   0.731   3.416  0.8030 -3.2588  0.8854
  341EMC     H6 4368   1.717   0.650   3.522 -0.0931  2.5578 -0.0280
  341EMC     H7 4369   1.667   0.654   3.363  2.0366 -2.0925  0.9790
  341EMC     H8 4370   1.572   0.552   3.469  0.0582  0.3136  1.5955
  342EMC     C1 4371   1.246   4.372   0.550  0.3764 -0.4158  0.1983
  342EMC     C2 4372   1.631   4.211   0.559 -1.0535  0.1140  0.2112
  342EMC     C3 4373   1.444   4.316   0.673 -0.1123 -0.0220  0.6968
  342EMC     O1 4374   1.334   4.277   0.611  0.0358 -0.6937  0.5780
  342EMC     O2 4375   1.512   4.205   0.629  0.6779  0.2393  0.4063
  342EMC     O3 4376   1.485   4.431   0.662 -0.1344  0.0335  0.3245
  342EMC     H1 4377   1.230   4.453   0.621 -0.6795  0.5795 -1.1222
  342EMC     H2 4378   1.147   4.336   0.523  0.3048 -1.1984  1.4394
  342EMC     H3 4379   1.299   4.414   0.463  0.1736  0.4876  0.5025
  342EMC     C4 4380   1.620   4.289   0.430  1.1009  0.2419  0.2502
  342EMC     H4 4381   1.667   4.109   0.546  0.1750  0.4756  0.6261
  342EMC     H5 4382   1.706   4.265   0.616  1.5660  0.6141 -3.3937
  342EMC     H6 4383   1.584   4.392   0.435  2.3619  0.9080 -2.4813
  342EMC     H7 4384   1.568   4.238   0.349 -0.9712  1.3333  0.8166
  342EMC     H8 4385   1.717   4.302   0.381 -0.3404  2.3922 -2.3124
  343EMC     C1 4386   3.389   3.190   3.597 -0.1405 -0.3906 -0.8815
  343EMC     C2 4387   3.470   3.624   3.537  0.4636 -0.9105 -0.6293
  343EMC     C3 4388   3.487   3.409   3.630 -0.0673  0.3322 -0.1412
  343EMC     O1 4389   3.377   3.332   3.620 -0.1976 -0.3768  0.3833
  343EMC     O2 4390   3.411   3.497   3.569 -0.0325 -0.0409  0.2316
  343EMC     O3 4391   3.605   3.381   3.598 -0.2896  0.1123  0.9429
  343EMC     H1 4392   3.292   3.171   3.552 -0.4711 -1.1115  0.1109
  343EMC     H2 4393   3.385   3.142   3.694 -1.2106  1.1418 -0.1108
  343EMC     H3 4394   3.471   3.157   3.533 -0.0631 -0.5914 -0.6774
  343EMC     C4 4395   3.496   3.623   3.388  0.3108  0.2344 -0.5549
  343EMC     H4 4396   3.560   3.659   3.586  0.3484 -0.3389 -0.8216
  343EMC     H5 4397   3.400   3.700   3.570  1.1724 -0.5393  0.0397
  343EMC     H6 4398   3.410   3.581   3.336 -0.1035  0.9961 -0.4939
  343EMC     H7 4399   3.583   3.558   3.376  0.0204 -0.2964  0.1731
  343EMC     H8 4400   3.534   3.720   3.354  3.4073 -0.9346 -0.7911
  344EMC     C1 4401   0.784   1.074   0.556  0.7634 -0.0428  0.1382
  344EMC     C2 4402   0.474   0.865   0.466  0.0679  0.0940 -0.9757
  344EMC     C3 4403   0.565   1.094   0.466  0.2102  0.0316 -0.0556
  344EMC     O1 4404   0.694   1.049   0.453  0.4973 -0.3382  0.3970
  344EMC     O2 4405   0.558   0.968   0.412  0.8825  0.1491 -0.3477
  344EMC     O3 4406   0.512   1.123   0.574 -0.1595 -0.4574 -0.4586
  344EMC     H1 4407   0.767   1.164   0.615  1.5264 -0.1579  0.5451
  344EMC     H2 4408   0.878   1.084   0.501  0.3538 -2.5634 -1.1676
  344EMC     H3 4409   0.784   0.995   0.631  0.2164  0.6863  0.9233
  344EMC     C4 4410   0.333   0.895   0.418 -0.0407 -0.3872  0.4962
  344EMC     H4 4411   0.493   0.856   0.573  0.6701 -0.5757 -1.1292
  344EMC     H5 4412   0.497   0.764   0.433 -0.1238 -0.3004  0.0445
  344EMC     H6 4413   0.313   0.896   0.311 -1.2414  1.6949  0.6699
  344EMC     H7 4414   0.308   0.994   0.457  2.0730  0.2882  0.2141
  344EMC     H8 4415   0.255   0.825   0.450 -3.0291  0.4082 -4.0318
  345EMC     C1 4416   3.208   2.090   0.222 -0.2904 -0.8464  0.2722
  345EMC     C2 4417   3.637   2.137   0.128  0.7951 -0.2335 -0.6100
  345EMC     C3 4418   3.440   2.038   0.230  0.0723 -0.1293 -0.4219
  345EMC     O1 4419   3.320   2.018   0.172 -0.0163  0.4272  0.0676
  345EMC     O2 4420   3.534   2.041   0.133  0.5080 -0.4112  0.1690
  345EMC     O3 4421   3.453   2.100   0.337 -0.7443  0.1659  0.4029
  345EMC     H1 4422   3.190   2.069   0.327 -0.9474  0.2452  0.3887
  345EMC     H2 4423   3.123   2.052   0.165 -0.6042 -1.8904  1.4112
  345EMC     H3 4424   3.222   2.196   0.200 -1.2714 -1.1237 -2.0810
  345EMC     C4 4425   3.748   2.057   0.062 -1.4140 -1.0301 -0.0437
  345EMC     H4 4426   3.676   2.163   0.226  1.0397 -0.4636 -0.6475
  345EMC     H5 4427   3.605   2.228   0.077  0.6871 -0.7637 -1.5107
  345EMC     H6 4428   3.776   1.972   0.124 -1.3186 -0.5808  0.5416
  345EMC     H7 4429   3.839   2.115   0.042  0.0818 -3.4742 -0.7355
  345EMC     H8 4430   3.716   2.017   4.477  1.9508 -0.0782 -1.7533
  346EMC     C1 4431   0.572   2.877   3.087 -0.0424  0.5153  0.9334
  346EMC     C2 4432   0.494   2.428   3.086 -0.3508  0.2794 -0.5365
  346EMC     C3 4433   0.464   2.660   3.048  0.3588 -0.0535  0.2436
  346EMC     O1 4434   0.552   2.755   3.009  0.2382 -0.2885  0.0931
  346EMC     O2 4435   0.544   2.558   3.032  0.3081  0.9304 -0.0406
  346EMC     O3 4436   0.372   2.673   3.133 -0.3871  0.0373 -0.3376
  346EMC     H1 4437   0.589   2.864   3.194  1.0798  0.6265  0.7821
  346EMC     H2 4438   0.486   2.942   3.073 -1.5712 -0.9881  2.8763
  346EMC     H3 4439   0.662   2.927   3.051 -0.0428  1.0587  1.6689
  346EMC     C4 4440   0.608   2.332   3.080 -0.3079  0.1207 -0.3199
  346EMC     H4 4441   0.413   2.393   3.022 -1.1233  2.1204 -0.6292
  346EMC     H5 4442   0.461   2.427   3.190  0.7466 -3.1187 -0.0967
  346EMC     H6 4443   0.671   2.324   3.169 -0.1301  2.5718 -0.1715
  346EMC     H7 4444   0.679   2.360   3.002  1.2055 -0.3848  0.8175
  346EMC     H8 4445   0.589   2.227   3.059 -0.4200 -0.0579  0.6150
  347EMC     C1 4446   4.214   2.555   1.490 -0.0605 -1.0211  0.3924
  347EMC     C2 4447   4.132   2.887   1.664 -0.2068  0.2383 -0.0346
  347EMC     C3 4448   4.307   2.726   1.617 -0.2647 -0.2595 -0.3259
  347EMC     O1 4449   4.258   2.688   1.500  0.2788 -0.0444  0.5863
  347EMC     O2 4450   4.210   2.811   1.574 -0.5466 -0.1355 -0.2519
  347EMC     O3 4451   4.294   2.670   1.722  0.0005  0.1966 -0.2476
  347EMC     H1 4452   4.281   2.491   1.547  0.8384 -1.0443 -0.6619
  347EMC     H2 4453   4.219   2.538   1.383  0.2827  0.0952  0.2127
  347EMC     H3 4454   4.108   2.555   1.517  0.5355 -2.4190  3.0019
  347EMC     C4 4455   4.074   3.013   1.612  0.3771  0.5834 -0.0817
  347EMC     H4 4456   4.190   2.918   1.751  0.6921  0.5406 -0.7207
  347EMC     H5 4457   4.056   2.823   1.709  0.0763  0.8729  1.3829
  347EMC     H6 4458   4.158   3.069   1.570  0.2251  1.1694  0.3780
  347EMC     H7 4459   4.030   3.072   1.693 -0.4481 -1.3253  0.9184
  347EMC     H8 4460   4.010   3.010   1.524  1.6235  0.6654 -1.0217
  348EMC     C1 4461   4.235   2.978   3.184  0.2842 -0.0267  0.3244
  348EMC     C2 4462   4.275   3.222   2.904  0.4255 -0.6629  0.4024
  348EMC     C3 4463   4.105   3.080   3.008  0.3029 -0.1988 -0.8959
  348EMC     O1 4464   4.157   3.086   3.128  0.3323 -0.3546  0.4474
  348EMC     O2 4465   4.157   3.199   2.982  0.2070 -0.1843 -0.1619
  348EMC     O3 4466   4.117   2.984   2.932 -0.3635  0.1358 -0.1208
  348EMC     H1 4467   4.183   2.886   3.157 -0.7447  0.7293 -0.3545
  348EMC     H2 4468   4.235   2.976   3.293 -1.8314 -0.0334  0.3607
  348EMC     H3 4469   4.336   2.967   3.143  0.5098  1.1905  0.5151
  348EMC     C4 4470   4.309   3.371   2.899 -0.4613  0.3373 -0.4854
  348EMC     H4 4471   4.266   3.195   2.799 -0.0279  1.0500 -0.0286
  348EMC     H5 4472   4.357   3.176   2.959  1.5792  0.3228 -0.4489
  348EMC     H6 4473   4.222   3.431   2.872  0.3090  1.7513  0.0866
  348EMC     H7 4474   4.381   3.405   2.825  0.8216 -0.4008  0.3913
  348EMC     H8 4475   4.342   3.415   2.993  0.3834  0.0122 -0.6232
  349EMC     C1 4476   2.189   0.124   3.451 -0.2011  0.0860  0.4132
  349EMC     C2 4477   2.530   0.071   3.641 -0.7177  0.2376 -0.0129
  349EMC     C3 4478   2.418   0.080   3.438 -1.1941  0.7008 -0.5643
  349EMC     O1 4479   2.313   0.111   3.505  0.3825 -0.1252 -0.6303
  349EMC     O2 4480   2.534   0.092   3.503 -0.0920 -0.2485  0.0354
  349EMC     O3 4481   2.430   0.089   3.317 -0.2100  0.7122  0.1129
  349EMC     H1 4482   2.191   0.134   3.342 -0.1478  1.0542  0.5017
  349EMC     H2 4483   2.130   0.203   3.496  0.1287  0.1702  0.7054
  349EMC     H3 4484   2.131   0.035   3.478  0.1750  0.1108  1.3376
  349EMC     C4 4485   2.669   0.057   3.696 -0.1820 -0.6711  0.1903
  349EMC     H4 4486   2.476   4.490   3.667  1.8648 -1.3868 -0.0222
  349EMC     H5 4487   2.478   0.153   3.689 -1.5989 -0.6368  0.5803
  349EMC     H6 4488   2.715   0.141   3.643 -0.1129  0.2065  1.5889
  349EMC     H7 4489   2.713   4.471   3.673 -0.8376 -1.6430  2.7072
  349EMC     H8 4490   2.684   0.084   3.801 -1.2565  0.0780  0.1705
  350EMC     C1 4491   1.091   0.971   2.827 -0.0673  0.0902 -0.2579
  350EMC     C2 4492   1.006   1.222   2.487 -0.5644 -0.3003  0.0837
  350EMC     C3 4493   1.118   1.113   2.645 -0.4483 -0.4092  0.9230
  350EMC     O1 4494   1.071   1.000   2.688 -0.6118 -0.4572 -1.1959
  350EMC     O2 4495   1.033   1.104   2.557 -0.0457  0.4577 -0.3971
  350EMC     O3 4496   1.144   1.218   2.711 -0.1740  0.5980  0.4126
  350EMC     H1 4497   1.054   0.877   2.868 -1.4448  0.9089  0.4482
  350EMC     H2 4498   1.054   1.056   2.884  1.0525 -0.0810  0.7889
  350EMC     H3 4499   1.200   0.968   2.839  0.1186  0.9246 -1.5639
  350EMC     C4 4500   0.928   1.193   2.366  0.2541 -0.4748 -0.3919
  350EMC     H4 4501   1.104   1.260   2.457 -0.1406 -1.4361 -0.0367
  350EMC     H5 4502   0.971   1.301   2.553 -2.0449 -0.9212  0.0873
  350EMC     H6 4503   0.919   1.279   2.301 -0.3170 -1.3635 -1.5305
  350EMC     H7 4504   0.829   1.165   2.403  0.3439 -1.2814 -0.7401
  350EMC     H8 4505   0.977   1.112   2.311 -0.4536 -0.9802 -0.3047
  351EMC     C1 4506   1.566   3.781   2.094  0.5523 -0.4326 -0.3520
  351EMC     C2 4507   1.584   4.040   2.393  0.2967  0.3936  0.0568
  351EMC     C3 4508   1.484   3.834   2.301  0.9530  0.3873 -0.1853
  351EMC     O1 4509   1.460   3.834   2.172  0.1539  0.6333 -0.0539
  351EMC     O2 4510   1.477   3.966   2.318  0.9258  0.1878 -0.1671
  351EMC     O3 4511   1.564   3.766   2.359  0.3398 -0.0009 -0.4109
  351EMC     H1 4512   1.648   3.850   2.075  0.2183 -0.2978 -1.3844
  351EMC     H2 4513   1.525   3.750   1.998 -0.1988 -0.1356 -0.1372
  351EMC     H3 4514   1.608   3.690   2.135 -0.6627 -0.3027  1.3025
  351EMC     C4 4515   1.562   4.188   2.377 -0.1553  0.5796  0.1819
  351EMC     H4 4516   1.684   4.005   2.367  0.2456  1.1569 -1.2219
  351EMC     H5 4517   1.563   4.015   2.497 -2.3124  1.6241 -0.1065
  351EMC     H6 4518   1.644   4.237   2.430 -0.0799 -1.9496  2.6074
  351EMC     H7 4519   1.469   4.230   2.417  1.2197  2.4103  1.6567
  351EMC     H8 4520   1.584   4.219   2.275  0.5147 -2.0002 -0.5324
  352EMC     C1 4521   1.750   0.868   1.261  0.5119 -0.2571  0.5708
  352EMC     C2 4522   1.624   1.246   1.354 -0.1562  0.2731 -0.1975
  352EMC     C3 4523   1.585   1.042   1.256  0.3671  0.2279 -0.2299
  352EMC     O1 4524   1.711   1.001   1.231  0.6166  0.1683  0.1884
  352EMC     O2 4525   1.664   1.150   1.265  0.0731 -0.3330 -0.0807
  352EMC     O3 4526   1.513   1.003   1.347  0.1022 -0.2752 -0.0771
  352EMC     H1 4527   1.698   0.787   1.211  1.2979 -1.5749  1.7820
  352EMC     H2 4528   1.749   0.855   1.369  1.0012 -1.8946  0.4132
  352EMC     H3 4529   1.858   0.860   1.248  0.6416 -0.6566  1.7212
  352EMC     C4 4530   1.717   1.370   1.346 -0.1342  0.5620 -0.3715
  352EMC     H4 4531   1.635   1.215   1.457 -1.6433 -1.4759 -0.5147
  352EMC     H5 4532   1.522   1.276   1.327 -0.3799 -1.5389 -1.6002
  352EMC     H6 4533   1.674   1.449   1.284 -0.0029  0.7527 -0.2205
  352EMC     H7 4534   1.810   1.341   1.299 -0.8030  1.7792 -2.5657
  352EMC     H8 4535   1.746   1.411   1.443  2.4164  1.1856 -1.3195
  353EMC     C1 4536   2.256   1.179   0.069  0.8493 -0.1464 -0.7849
  353EMC     C2 4537   2.423   0.916   4.258  0.4560  0.3263  0.0080
  353EMC     C3 4538   2.279   0.969   4.454  0.2361 -0.8920  0.5598
  353EMC     O1 4539   2.319   1.057   0.042  0.2816  0.0210  0.3734
  353EMC     O2 4540   2.397   0.922   4.398  0.5835  0.2627  0.0030
  353EMC     O3 4541   2.165   0.974   4.400 -0.2656 -0.6294 -0.6086
  353EMC     H1 4542   2.155   1.196   0.033  1.2943  4.1781 -0.5260
  353EMC     H2 4543   2.319   1.261   0.035  0.4888  0.5658  0.2225
  353EMC     H3 4544   2.247   1.203   0.175 -4.8104 -1.2100 -0.7472
  353EMC     C4 4545   2.541   0.829   4.217 -0.0507 -0.4091 -0.6973
  353EMC     H4 4546   2.421   1.018   4.218 -0.2880  0.8027  1.2108
  353EMC     H5 4547   2.332   0.873   4.215 -0.6310 -0.3694  2.8363
  353EMC     H6 4548   2.535   0.791   4.115  0.6418 -1.8514 -0.2317
  353EMC     H7 4549   2.557   0.741   4.280 -1.4154 -0.6957 -0.7290
  353EMC     H8 4550   2.625   0.899   4.217 -0.8221  0.5976 -3.0378
  354EMC     C1 4551   0.456   3.058   3.888  0.0195 -0.1177  0.0238
  354EMC     C2 4552   0.701   3.382   3.963 -0.2064 -0.2673 -0.0108
  354EMC     C3 4553   0.579   3.237   3.813  0.4975  0.6883  0.1089
  354EMC     O1 4554   0.488   3.199   3.893 -0.1173  0.3348 -0.4815
  354EMC     O2 4555   0.624   3.271   3.936  0.0155 -0.2751  0.1819
  354EMC     O3 4556   0.554   3.329   3.736  0.9677 -0.5210 -0.3975
  354EMC     H1 4557   0.385   3.024   3.811 -1.2944  0.8271  0.7876
  354EMC     H2 4558   0.405   3.025   3.978  2.6558  0.5171  1.8283
  354EMC     H3 4559   0.545   2.995   3.880 -2.0822 -3.0827 -2.9398
  354EMC     C4 4560   0.826   3.346   4.044 -0.1495 -0.5301  0.6183
  354EMC     H4 4561   0.633   3.447   4.019  1.7942  1.0836  1.0088
  354EMC     H5 4562   0.723   3.439   3.873  0.1393 -0.2937  0.0535
  354EMC     H6 4563   0.905   3.380   3.978 -2.3497  0.3428 -1.7590
  354EMC     H7 4564   0.857   3.252   4.090 -0.0462  0.3838  2.5398
  354EMC     H8 4565   0.833   3.422   4.122  0.5073  0.5016 -0.4154
  355EMC     C1 4566   2.986   1.385   3.043  0.1649  0.0681  1.1697
  355EMC     C2 4567   3.329   1.604   3.059  0.6899  0.4169 -0.0966
  355EMC     C3 4568   3.150   1.507   3.164 -0.6162  0.3650 -0.6930
  355EMC     O1 4569   3.120   1.408   3.071 -0.0273  0.2516 -0.3703
  355EMC     O2 4570   3.271   1.564   3.178  0.1696  0.3741  0.3016
  355EMC     O3 4571   3.065   1.553   3.231  0.1945 -0.5974 -0.1592
  355EMC     H1 4572   2.965   1.320   2.958  0.6472  2.4502 -0.8704
  355EMC     H2 4573   2.929   1.477   3.037  0.4948  0.1847 -0.7406
  355EMC     H3 4574   2.937   1.336   3.127 -0.6040 -2.9835 -0.8838
  355EMC     C4 4575   3.483   1.591   3.056 -0.7691 -0.0923  0.1856
  355EMC     H4 4576   3.299   1.708   3.049 -1.2886 -0.1803 -0.7007
  355EMC     H5 4577   3.293   1.548   2.972 -1.5465  0.1493  0.9292
  355EMC     H6 4578   3.530   1.676   3.106 -0.7581 -1.4487  2.6519
  355EMC     H7 4579   3.515   1.585   2.952  1.6711 -1.7855  0.9349
  355EMC     H8 4580   3.527   1.502   3.101 -2.6023 -0.4303  1.4151
  356EMC     C1 4581   0.373   4.194   1.634  0.3175 -0.6373  0.2785
  356EMC     C2 4582   0.529   4.360   1.953 -0.1244 -0.3956 -0.0137
  356EMC     C3 4583   0.543   4.181   1.794 -0.2617 -0.0737  0.9386
  356EMC     O1 4584   0.416   4.159   1.760 -0.3998 -0.0460  0.4990
  356EMC     O2 4585   0.476   4.238   1.900 -0.0806 -0.2197  0.0077
  356EMC     O3 4586   0.635   4.236   1.730  0.5259 -0.0911 -0.0617
  356EMC     H1 4587   0.265   4.185   1.629  0.1398  1.1520  0.1296
  356EMC     H2 4588   0.421   4.143   1.550  0.8666  2.3902 -1.4157
  356EMC     H3 4589   0.397   4.298   1.610  1.2663 -0.9946 -0.3986
  356EMC     C4 4590   0.446   4.395   2.073  0.5731 -0.6140 -0.4079
  356EMC     H4 4591   0.509   4.435   1.877 -0.7208 -0.8161 -0.2777
  356EMC     H5 4592   0.637   4.358   1.966 -0.2682 -0.7183  1.3591
  356EMC     H6 4593   0.485   4.474   2.137  2.5645 -1.2880 -0.7222
  356EMC     H7 4594   0.465   4.302   2.127  1.7728  0.6891  1.5424
  356EMC     H8 4595   0.340   4.401   2.052  1.1225  2.0867 -3.0406
  357EMC     C1 4596   2.235   0.596   2.627 -0.5571  0.4261 -0.0306
  357EMC     C2 4597   1.816   0.655   2.409 -0.1732  0.7341  0.2171
  357EMC     C3 4598   2.025   0.668   2.520 -0.4321 -0.5514  0.3688
  357EMC     O1 4599   2.112   0.573   2.551 -0.6399 -0.2827 -0.0636
  357EMC     O2 4600   1.921   0.591   2.476 -0.7659  0.4237 -0.5250
  357EMC     O3 4601   2.009   0.767   2.585  0.4365 -0.1663 -0.0511
  357EMC     H1 4602   2.257   0.520   2.702  0.8143 -0.1037 -0.9178
  357EMC     H2 4603   2.237   0.683   2.692 -0.4469 -1.8839  3.3087
  357EMC     H3 4604   2.321   0.611   2.562 -0.2810  0.6714  0.3857
  357EMC     C4 4605   1.727   0.548   2.344  0.3349 -0.3626  0.1452
  357EMC     H4 4606   1.857   0.724   2.336  1.1250 -0.2348  0.0011
  357EMC     H5 4607   1.752   0.705   2.481  0.3946  1.2182  0.3849
  357EMC     H6 4608   1.757   0.485   2.261 -3.8200 -0.4804 -1.5075
  357EMC     H7 4609   1.647   0.617   2.316 -0.1837  0.2141  2.8108
  357EMC     H8 4610   1.687   0.497   2.431  0.9170  0.5592  0.9763
  358EMC     C1 4611   2.678   4.333   2.230 -0.5225 -1.0314  0.4373
  358EMC     C2 4612   2.217   4.433   2.249 -0.2400 -0.1765  0.2828
  358EMC     C3 4613   2.451   4.378   2.246 -0.0285  0.4901  0.5398
  358EMC     O1 4614   2.548   4.300   2.196  0.0068 -0.0546 -0.0370
  358EMC     O2 4615   2.328   4.347   2.216  0.4911 -0.7202  0.4560
  358EMC     O3 4616   2.477   4.473   2.318  0.2734  0.0767  0.2508
  358EMC     H1 4617   2.752   4.283   2.168  3.2376  1.6338  2.3544
  358EMC     H2 4618   2.697   4.315   2.335 -2.2637 -0.9443  0.7927
  358EMC     H3 4619   2.692   4.441   2.220 -1.9358 -0.8012  0.7236
  358EMC     C4 4620   2.126   4.349   2.337 -0.1517 -0.1200  0.0085
  358EMC     H4 4621   2.163   4.472   2.163 -1.7556  0.9120  1.6739
  358EMC     H5 4622   2.247   0.018   2.293 -1.4295  0.2332  0.2561
  358EMC     H6 4623   2.144   4.319   2.440 -1.5577 -1.3436 -0.0657
  358EMC     H7 4624   2.121   4.248   2.295  0.5492 -1.3137  2.6363
  358EMC     H8 4625   2.028   4.397   2.332  0.3886  0.9115 -1.3727
  359EMC     C1 4626   2.023   0.411   0.971 -0.3966 -0.2324 -0.0015
  359EMC     C2 4627   2.215   0.496   1.303  0.2416 -0.5686 -0.0409
  359EMC     C3 4628   2.016   0.523   1.180  0.3429  0.6645  0.1008
  359EMC     O1 4629   1.992   0.413   1.110  0.3930 -0.2340  0.2628
  359EMC     O2 4630   2.084   0.453   1.278  0.0768 -0.3186  0.8992
  359EMC     O3 4631   2.026   0.636   1.135 -0.4153  0.1083  0.2816
  359EMC     H1 4632   2.119   0.458   0.948  1.8882 -4.2956  0.0942
  359EMC     H2 4633   1.962   0.464   0.899  0.5431  1.9019  0.6982
  359EMC     H3 4634   2.040   0.306   0.946 -0.9571 -0.1448 -0.7611
  359EMC     C4 4635   2.274   0.403   1.418  0.7879 -0.9896 -0.6388
  359EMC     H4 4636   2.207   0.597   1.344  0.5116 -0.4612 -0.2476
  359EMC     H5 4637   2.282   0.503   1.218  0.3957 -0.7110  0.0670
  359EMC     H6 4638   2.283   0.303   1.377  3.1535  0.2577 -3.5426
  359EMC     H7 4639   2.200   0.391   1.497  0.0603  0.0243 -1.1351
  359EMC     H8 4640   2.354   0.447   1.478 -0.3640  0.1086  0.1347
  360EMC     C1 4641   3.101   2.132   4.246  0.9009 -0.3518 -0.8433
  360EMC     C2 4642   2.866   2.206   3.900  0.4431  1.1137 -0.8385
  360EMC     C3 4643   3.042   2.107   4.021  0.7014 -0.3062  0.3252
  360EMC     O1 4644   3.086   2.185   4.116  0.6356  0.8498 -0.0589
  360EMC     O2 4645   2.998   2.206   3.945  0.2161 -0.2362 -0.0863
  360EMC     O3 4646   2.979   2.005   4.039  0.1457  0.3556  0.3257
  360EMC     H1 4647   3.009   2.104   4.297  1.4492 -0.2254  0.2490
  360EMC     H2 4648   3.160   2.210   4.294  1.2260 -1.4637  0.6413
  360EMC     H3 4649   3.158   2.038   4.239 -0.2609 -1.1245 -0.2242
  360EMC     C4 4650   2.807   2.338   3.943  0.3725 -0.2025 -0.0828
  360EMC     H4 4651   2.804   2.127   3.944  1.1284  0.8349 -0.3554
  360EMC     H5 4652   2.851   2.198   3.793 -0.2187  1.7248 -0.8026
  360EMC     H6 4653   2.838   2.428   3.889  1.1821  0.0102  0.7123
  360EMC     H7 4654   2.834   2.349   4.048 -0.4606 -1.0129  0.2269
  360EMC     H8 4655   2.701   2.335   3.918  0.5014 -0.7645 -0.5888
  361EMC     C1 4656   0.583   3.715   2.699  0.0228  0.1661 -0.0852
  361EMC     C2 4657   0.502   4.105   2.858 -0.2506 -0.2950  1.0361
  361EMC     C3 4658   0.597   3.901   2.873 -0.1456  0.4501 -0.0038
  361EMC     O1 4659   0.527   3.792   2.807 -0.7669 -0.4836 -0.1004
  361EMC     O2 4660   0.484   3.965   2.884  0.5091  0.2212 -0.3254
  361EMC     O3 4661   0.709   3.947   2.847  0.0970 -0.7250  0.4538
  361EMC     H1 4662   0.514   3.666   2.630  1.0674 -0.5756 -0.6335
  361EMC     H2 4663   0.652   3.642   2.741  0.0947 -0.1018 -0.6582
  361EMC     H3 4664   0.634   3.788   2.637 -0.5563 -0.9435 -1.9400
  361EMC     C4 4665   0.367   4.183   2.877  0.6633 -0.2304 -0.0232
  361EMC     H4 4666   0.532   4.115   2.754 -1.3302  0.3306  0.7632
  361EMC     H5 4667   0.579   4.152   2.918 -0.0863 -1.6846  1.9463
  361EMC     H6 4668   0.365   4.277   2.823 -3.7521 -1.2128 -2.0362
  361EMC     H7 4669   0.352   4.209   2.982 -1.8350  1.1695 -0.6363
  361EMC     H8 4670   0.271   4.138   2.854 -1.1167  3.6732 -1.1582
  362EMC     C1 4671   3.430   1.103   1.600 -0.1456 -0.3525  0.2380
  362EMC     C2 4672   3.453   1.447   1.842 -0.3402  0.1950 -0.2264
  362EMC     C3 4673   3.344   1.247   1.766 -0.1445 -0.0177  0.6204
  362EMC     O1 4674   3.424   1.141   1.737 -0.1831 -0.3084  0.2361
  362EMC     O2 4675   3.442   1.304   1.842  0.3192 -0.0961  0.1257
  362EMC     O3 4676   3.268   1.312   1.690  0.6983  0.1882 -0.0945
  362EMC     H1 4677   3.450   1.196   1.548 -0.5844  0.8075  2.0363
  362EMC     H2 4678   3.335   1.066   1.562  0.5853  1.2865 -3.6649
  362EMC     H3 4679   3.513   1.037   1.577  2.0610  1.8840  1.3502
  362EMC     C4 4680   3.579   1.478   1.924 -0.6025 -0.3378 -0.3631
  362EMC     H4 4681   3.365   1.495   1.885  0.7338  1.3255  0.7707
  362EMC     H5 4682   3.478   1.487   1.744  4.6917  0.7412  0.9926
  362EMC     H6 4683   3.663   1.426   1.879  0.4192 -0.5060  1.6175
  362EMC     H7 4684   3.568   1.442   2.026  1.4128  0.7821  0.3021
  362EMC     H8 4685   3.593   1.586   1.930  1.5891 -0.5247 -1.1936
  363EMC     C1 4686   2.667   1.930   1.425 -0.4195  0.1749  0.7654
  363EMC     C2 4687   2.713   1.609   1.134  0.5562  0.0639  0.9955
  363EMC     C3 4688   2.775   1.796   1.256  0.2923  0.7037  0.7008
  363EMC     O1 4689   2.733   1.807   1.384 -0.3078 -0.9307  0.1962
  363EMC     O2 4690   2.770   1.663   1.248 -0.3883 -0.2568  0.1923
  363EMC     O3 4691   2.751   1.871   1.162 -0.6768  0.0671  0.8750
  363EMC     H1 4692   2.614   1.916   1.519  0.0210  1.9674  1.3361
  363EMC     H2 4693   2.599   1.948   1.342  1.5172 -0.9762 -1.1939
  363EMC     H3 4694   2.740   2.011   1.430 -2.1332  1.7932  0.4801
  363EMC     C4 4695   2.652   1.478   1.175  0.1355 -0.5556  0.0602
  363EMC     H4 4696   2.794   1.604   1.061  0.0483  0.1688  0.4259
  363EMC     H5 4697   2.635   1.669   1.087  0.4766 -0.4381  0.4801
  363EMC     H6 4698   2.569   1.461   1.106  1.5102  0.2603 -1.9102
  363EMC     H7 4699   2.629   1.478   1.281  1.9818 -2.2589  0.5241
  363EMC     H8 4700   2.725   1.399   1.191  0.4312 -0.1496  0.7850
  364EMC     C1 4701   0.777   0.682   2.996  0.2092  0.0771  1.0848
  364EMC     C2 4702   1.023   0.488   2.635  0.0043  0.2946 -0.4543
  364EMC     C3 4703   0.888   0.590   2.810 -0.0913  0.5368 -0.6340
  364EMC     O1 4704   0.854   0.582   2.940  0.5436 -0.0911 -0.1802
  364EMC     O2 4705   0.959   0.486   2.760  0.5958 -0.4792 -0.1279
  364EMC     O3 4706   0.864   0.683   2.733 -0.6084 -0.2035 -0.6304
  364EMC     H1 4707   0.842   0.770   3.006  0.7352  0.7704 -4.7245
  364EMC     H2 4708   0.721   0.656   3.086 -2.7103 -2.1806 -1.1879
  364EMC     H3 4709   0.706   0.717   2.921  1.1843  0.9923  0.5568
  364EMC     C4 4710   1.081   0.344   2.627 -0.0712 -0.3765 -0.4955
  364EMC     H4 4711   1.101   0.564   2.641  0.0254  0.2188  0.4965
  364EMC     H5 4712   0.941   0.502   2.565 -1.9219 -4.0840  0.5774
  364EMC     H6 4713   1.177   0.342   2.575  0.2360 -0.5053  0.0685
  364EMC     H7 4714   1.006   0.282   2.578 -1.8674  2.1406 -1.1644
  364EMC     H8 4715   1.105   0.306   2.726  2.3747  1.4902 -0.2672
  365EMC     C1 4716   4.179   0.991   2.854  0.0269 -0.0631 -0.2080
  365EMC     C2 4717   4.213   1.129   2.403 -0.4735 -0.7837  0.0701
  365EMC     C3 4718   4.162   1.104   2.640 -0.3053 -0.1850 -0.0793
  365EMC     O1 4719   4.235   1.036   2.729 -0.3200  0.0387 -0.4250
  365EMC     O2 4720   4.252   1.110   2.536 -0.0582  0.4202 -0.4653
  365EMC     O3 4721   4.041   1.108   2.627  0.3001  0.0988 -0.4174
  365EMC     H1 4722   4.077   0.953   2.848 -0.3131  0.4370  1.8127
  365EMC     H2 4723   4.178   1.074   2.923  0.0867  0.4479 -0.8150
  365EMC     H3 4724   4.251   0.916   2.888  1.2670  1.2092  0.0827
  365EMC     C4 4725   4.307   1.057   2.308 -0.0378  1.0219 -0.1969
  365EMC     H4 4726   4.198   1.236   2.385 -0.4196 -0.6019  1.0073
  365EMC     H5 4727   4.111   1.094   2.388 -0.6648  0.4043 -1.6542
  365EMC     H6 4728   4.326   0.953   2.334  0.1722  1.3470  1.0269
  365EMC     H7 4729   4.404   1.107   2.311  1.8169 -2.2060 -1.3611
  365EMC     H8 4730   4.274   1.048   2.205 -1.1010 -1.5834  0.2848
  366EMC     C1 4731   4.382   3.916   2.228 -0.3431  0.0280  0.1598
  366EMC     C2 4732   4.022   4.128   2.317 -0.6557 -0.8087 -0.0266
  366EMC     C3 4733   4.237   4.103   2.226  0.0577 -0.5877  0.2071
  366EMC     O1 4734   4.275   3.986   2.170  0.0259 -0.6259 -0.4705
  366EMC     O2 4735   4.104   4.083   2.209  0.4097  0.2729 -0.1519
  366EMC     O3 4736   4.297   4.163   2.322  0.2830  0.6272  0.1932
  366EMC     H1 4737   4.442   3.964   2.305  0.7614 -1.4628  0.2767
  366EMC     H2 4738   4.448   3.889   2.145 -1.4667 -1.0586 -0.4200
  366EMC     H3 4739   4.349   3.820   2.269 -1.3637  0.5447  0.5677
  366EMC     C4 4740   3.881   4.064   2.314 -0.1494  0.0438 -0.1120
  366EMC     H4 4741   4.008   4.235   2.307  0.1804 -0.5341  1.5553
  366EMC     H5 4742   4.069   4.104   2.412  1.0728 -1.0908 -0.9151
  366EMC     H6 4743   3.900   3.958   2.328 -0.1057 -0.3025 -2.4265
  366EMC     H7 4744   3.820   4.083   2.226 -1.2235 -1.0537  0.3690
  366EMC     H8 4745   3.834   4.094   2.408 -0.3483 -0.7446  0.0447
  367EMC     C1 4746   4.095   0.349   1.144 -0.5293  0.3252  0.1217
  367EMC     C2 4747   3.898   0.657   1.172  0.5441 -0.1327 -0.1088
  367EMC     C3 4748   3.879   0.425   1.200  0.7598  0.1353 -0.2216
  367EMC     O1 4749   3.955   0.367   1.112 -0.4673  0.3518  0.0561
  367EMC     O2 4750   3.879   0.536   1.111 -0.1564 -0.1590 -0.0324
  367EMC     O3 4751   3.915   0.418   1.320 -0.0361  0.1445  0.3848
  367EMC     H1 4752   4.106   0.281   1.229 -0.4986  0.9413  0.6174
  367EMC     H2 4753   4.153   0.432   1.183  0.9277 -1.2371  1.4680
  367EMC     H3 4754   4.140   0.307   1.054 -0.8112 -0.8408  0.5065
  367EMC     C4 4755   3.816   0.765   1.101  0.3046 -0.3261  0.3734
  367EMC     H4 4756   4.000   0.693   1.189  0.3297  0.6108 -0.3661
  367EMC     H5 4757   3.852   0.663   1.271  0.1651  2.8342 -0.3486
  367EMC     H6 4758   3.710   0.739   1.102 -0.4048  2.0917 -1.1699
  367EMC     H7 4759   3.852   0.770   0.998 -0.6053  1.5177  0.0988
  367EMC     H8 4760   3.838   0.860   1.151 -0.0835 -0.8517  1.5665
  368EMC     C1 4761   3.302   0.079   3.534 -0.9579 -0.6742 -0.6381
  368EMC     C2 4762   3.702   0.246   3.533 -0.1850 -0.3953  0.2480
  368EMC     C3 4763   3.532   0.081   3.484 -0.2859  0.7068  0.5582
  368EMC     O1 4764   3.435   0.043   3.573  0.2662  0.4815  0.1313
  368EMC     O2 4765   3.605   0.152   3.575  1.3394 -0.5231  0.2171
  368EMC     O3 4766   3.510   0.112   3.366 -0.1173  0.1255 -0.3075
  368EMC     H1 4767   3.262   4.499   3.487 -0.9615 -0.6912 -0.6031
  368EMC     H2 4768   3.303   0.166   3.469  1.1725  0.5195  0.8859
  368EMC     H3 4769   3.243   0.099   3.624  0.1537 -0.1610 -0.0040
  368EMC     C4 4770   3.803   0.298   3.637 -0.6639  0.3144  0.3615
  368EMC     H4 4771   3.638   0.325   3.493  0.3075 -0.4735 -0.7397
  368EMC     H5 4772   3.758   0.203   3.450 -1.0987 -2.7538  0.7899
  368EMC     H6 4773   3.871   0.365   3.584 -1.6040  1.3887  0.4558
  368EMC     H7 4774   3.857   0.222   3.694 -1.3848 -1.5098 -1.2826
  368EMC     H8 4775   3.746   0.355   3.711 -1.0469 -0.3862  0.6196
  369EMC     C1 4776   0.854   3.254   0.464 -0.1001  0.1198  0.0555
  369EMC     C2 4777   0.536   3.349   0.235  1.4402  0.1682  0.6938
  369EMC     C3 4778   0.769   3.351   0.263 -0.5156  0.0549  0.0834
  369EMC     O1 4779   0.853   3.263   0.322  0.1416 -0.0774 -0.1528
  369EMC     O2 4780   0.652   3.317   0.305 -0.4909 -0.2484 -0.7980
  369EMC     O3 4781   0.792   3.396   0.151 -0.5792 -0.2295 -0.2258
  369EMC     H1 4782   0.807   3.158   0.484 -0.9166  0.2632 -1.0598
  369EMC     H2 4783   0.794   3.334   0.509  2.5841  1.5245  1.3548
  369EMC     H3 4784   0.959   3.261   0.491 -0.4028 -0.7226  1.5739
  369EMC     C4 4785   0.425   3.334   0.335  0.4405 -0.5340  0.5150
  369EMC     H4 4786   0.523   3.287   0.147  0.5893  0.7654  0.3810
  369EMC     H5 4787   0.542   3.449   0.192  0.7906  0.2934  0.8831
  369EMC     H6 4788   0.406   3.229   0.357  1.5509 -0.9599 -0.4274
  369EMC     H7 4789   0.331   3.368   0.291  0.5141  0.2740  0.9683
  369EMC     H8 4790   0.423   3.386   0.430 -1.5768  1.1130 -0.3512
  370EMC     C1 4791   1.190   0.140   3.907  0.1837  0.2599  0.3915
  370EMC     C2 4792   1.489   4.330   3.792  0.3844  0.5281  0.4736
  370EMC     C3 4793   1.330   4.504   3.778 -0.2043 -0.2988  0.0458
  370EMC     O1 4794   1.315   0.109   3.841  0.2911  0.6957 -0.2255
  370EMC     O2 4795   1.452   4.463   3.818 -0.2112  0.1886 -0.1626
  370EMC     O3 4796   1.236   4.431   3.738  0.3911  0.1404  0.2429
  370EMC     H1 4797   1.132   0.198   3.835  3.0015  3.5340  0.5309
  370EMC     H2 4798   1.212   0.206   3.991  0.6799  2.1247 -1.1360
  370EMC     H3 4799   1.142   0.046   3.935  2.5858 -1.3417 -0.5370
  370EMC     C4 4800   1.499   4.246   3.918  0.5169 -0.3081  0.4800
  370EMC     H4 4801   1.585   4.320   3.740 -0.3460 -3.1217 -0.4162
  370EMC     H5 4802   1.413   4.291   3.724  1.0847  2.5968 -1.6340
  370EMC     H6 4803   1.404   4.259   3.972  0.4350  1.2688  0.0066
  370EMC     H7 4804   1.581   4.287   3.977 -0.8742  1.7496  1.1411
  370EMC     H8 4805   1.502   4.141   3.891 -0.0865  0.5291 -3.4676
  371EMC     C1 4806   1.172   2.707   3.423 -0.0111 -0.1966  0.7208
  371EMC     C2 4807   0.830   2.542   3.461 -0.6900 -0.1857  0.8287
  371EMC     C3 4808   1.029   2.602   3.574 -0.5554 -0.5559  0.5541
  371EMC     O1 4809   1.063   2.716   3.508  0.1677 -0.3186 -0.7143
  371EMC     O2 4810   0.902   2.635   3.538  0.1629 -0.8818 -0.4575
  371EMC     O3 4811   1.082   2.495   3.552 -0.6867  0.2198 -0.0141
  371EMC     H1 4812   1.133   2.667   3.329  0.7760 -2.8716  1.4352
  371EMC     H2 4813   1.250   2.635   3.449 -1.7940 -2.4080  0.2937
  371EMC     H3 4814   1.215   2.802   3.393 -2.5040  0.5124 -0.9770
  371EMC     C4 4815   0.688   2.582   3.431  0.3702 -0.3724 -0.1428
  371EMC     H4 4816   0.830   2.446   3.512  0.0506 -0.7945 -0.2621
  371EMC     H5 4817   0.889   2.524   3.370 -0.1819  2.3508  0.5760
  371EMC     H6 4818   0.628   2.531   3.357 -0.9151  2.5491 -1.2903
  371EMC     H7 4819   0.683   2.686   3.397  0.5691 -0.2379  0.2283
  371EMC     H8 4820   0.633   2.582   3.525  2.9779 -2.2968  1.5147
  372EMC     C1 4821   1.601   3.457   1.965 -0.6211 -0.5362 -0.0657
  372EMC     C2 4822   1.444   3.686   1.682  0.5172  0.3827 -0.1467
  372EMC     C3 4823   1.412   3.505   1.828  0.3200  1.0265  0.2507
  372EMC     O1 4824   1.468   3.511   1.958 -0.8467  0.1701 -0.0742
  372EMC     O2 4825   1.430   3.639   1.815 -0.5681 -0.1953  0.0370
  372EMC     O3 4826   1.447   3.420   1.747 -0.3269 -0.2546  0.3850
  372EMC     H1 4827   1.656   3.480   1.874 -1.1282  0.8532 -0.0344
  372EMC     H2 4828   1.594   3.348   1.976  1.3907 -0.6404  0.6614
  372EMC     H3 4829   1.660   3.492   2.050  1.5600  0.7466 -2.0139
  372EMC     C4 4830   1.355   3.812   1.682  0.1381 -0.0677 -1.3908
  372EMC     H4 4831   1.406   3.610   1.612  1.0048 -3.5143  3.4137
  372EMC     H5 4832   1.550   3.707   1.665  1.0420 -0.6082  1.6702
  372EMC     H6 4833   1.406   3.892   1.736 -0.5469 -1.6195  1.7788
  372EMC     H7 4834   1.261   3.783   1.729 -0.3343 -0.3777 -2.4996
  372EMC     H8 4835   1.334   3.857   1.585  0.2542 -1.3563 -2.0237
  373EMC     C1 4836   3.527   0.480   0.761  0.6225  0.0217  0.3438
  373EMC     C2 4837   3.329   0.151   0.656 -0.2192 -0.1550  0.7249
  373EMC     C3 4838   3.446   0.343   0.598  0.4519 -0.2187  0.2863
  373EMC     O1 4839   3.538   0.371   0.687 -0.0464  0.2319 -0.4995
  373EMC     O2 4840   3.438   0.240   0.672  0.2527  0.4892  0.8539
  373EMC     O3 4841   3.353   0.422   0.574 -0.3776  0.0510  0.5018
  373EMC     H1 4842   3.509   0.574   0.710 -0.7075 -0.8629 -0.9034
  373EMC     H2 4843   3.627   0.493   0.802  0.4742 -0.3709  0.8484
  373EMC     H3 4844   3.450   0.459   0.835 -2.6957  1.4126 -2.4517
  373EMC     C4 4845   3.245   0.124   0.787 -1.0569  0.0591 -0.8109
  373EMC     H4 4846   3.387   0.064   0.624  1.6454  1.0127  0.7636
  373EMC     H5 4847   3.263   0.171   0.572  0.6401  0.5624  0.2053
  373EMC     H6 4848   3.172   0.204   0.801 -0.9946  0.5916 -3.0813
  373EMC     H7 4849   3.302   0.104   0.877  0.8993  0.5384 -1.8770
  373EMC     H8 4850   3.182   0.037   0.771 -2.8734  0.8140  1.6449
  374EMC     C1 4851   4.017   0.028   1.173 -0.9846  0.3303  0.1735
  374EMC     C2 4852   4.102   4.401   1.609  0.5466  0.7061 -0.1408
  374EMC     C3 4853   4.021   4.484   1.401  0.8659  0.0565 -0.1762
  374EMC     O1 4854   4.058   4.450   1.280 -0.0312  0.3384  0.1407
  374EMC     O2 4855   4.116   4.420   1.469 -0.2802 -0.0854  0.4764
  374EMC     O3 4856   3.924   0.042   1.445 -0.9247 -0.0133  0.2189
  374EMC     H1 4857   4.090   0.064   1.101 -0.4999 -0.0775  0.4529
  374EMC     H2 4858   3.966   0.117   1.208  0.4199  1.2025  0.0635
  374EMC     H3 4859   3.947   4.470   1.124  1.3376 -5.0712  3.3470
  374EMC     C4 4860   4.203   4.288   1.640  0.7403  0.2244 -0.2617
  374EMC     H4 4861   4.003   4.362   1.631  0.7162  0.7269  0.6845
  374EMC     H5 4862   4.124   4.499   1.653  0.2022  1.2189 -1.0868
  374EMC     H6 4863   4.306   4.321   1.623  1.1032 -1.9637 -3.1992
  374EMC     H7 4864   4.183   4.198   1.582  3.9487 -0.8091  0.0606
  374EMC     H8 4865   4.196   4.249   1.741  2.8519  2.8454  1.0050
  375EMC     C1 4866   2.323   1.763   3.856 -0.0426  0.2627  0.0315
  375EMC     C2 4867   2.606   1.887   4.141  0.5921  0.2958 -0.1821
  375EMC     C3 4868   2.489   1.914   3.928 -0.8382 -0.0518  0.0615
  375EMC     O1 4869   2.458   1.804   3.865  0.2474 -0.0996  0.2119
  375EMC     O2 4870   2.587   1.850   4.005  0.9456  0.0930  0.2878
  375EMC     O3 4871   2.406   1.988   3.975  0.1639 -0.3193  0.1254
  375EMC     H1 4872   2.319   1.654   3.846  1.4871 -0.0500  2.1980
  375EMC     H2 4873   2.278   1.793   3.761 -2.2338 -4.5073 -0.7301
  375EMC     H3 4874   2.259   1.782   3.942 -1.5498  0.3909 -1.0700
  375EMC     C4 4875   2.696   1.792   4.212 -0.9540 -0.0901  0.2969
  375EMC     H4 4876   2.517   1.898   4.202  0.0674  1.0207 -1.0510
  375EMC     H5 4877   2.667   1.977   4.147  4.3493 -2.1195  2.7723
  375EMC     H6 4878   2.739   1.839   4.301 -0.8750  0.4202 -0.0080
  375EMC     H7 4879   2.788   1.767   4.158  1.9620  0.6612  4.4293
  375EMC     H8 4880   2.659   1.695   4.244  2.2850 -1.4689  0.3340
  376EMC     C1 4881   2.448   4.117   0.280  1.1916  0.2808  0.8126
  376EMC     C2 4882   2.719   4.109   0.572  0.7933 -0.6006 -0.1774
  376EMC     C3 4883   2.596   3.975   0.415 -0.1151  0.3679  1.0976
  376EMC     O1 4884   2.560   4.102   0.358  0.0939  0.1672  0.2177
  376EMC     O2 4885   2.602   4.048   0.534  0.5268  0.0700  0.3821
  376EMC     O3 4886   2.526   3.875   0.403 -0.0596  0.1162  0.2108
  376EMC     H1 4887   2.453   4.059   0.188 -2.1271 -0.9050  1.2618
  376EMC     H2 4888   2.445   4.223   0.258  1.5400 -0.1807 -1.7632
  376EMC     H3 4889   2.361   4.088   0.338  0.2405 -1.5418 -1.3813
  376EMC     C4 4890   2.770   4.052   0.709  0.0507 -0.3979  0.1429
  376EMC     H4 4891   2.702   4.216   0.584 -1.3735 -0.9181 -0.0142
  376EMC     H5 4892   2.802   4.104   0.502  2.8798  4.1453  1.5204
  376EMC     H6 4893   2.757   3.945   0.699  1.7421 -0.4748 -2.0781
  376EMC     H7 4894   2.691   4.080   0.779  1.2273  1.9317  0.6430
  376EMC     H8 4895   2.870   4.087   0.737 -0.5160  1.4056  0.0781
  377EMC     C1 4896   4.436   0.732   2.584 -0.2382  0.2696 -0.4329
  377EMC     C2 4897   4.489   0.730   2.126  0.0828  0.2896  0.3971
  377EMC     C3 4898   4.508   0.706   2.362  0.2544  0.3253 -0.5041
  377EMC     O1 4899   4.468   0.780   2.456 -0.6470  0.2469  0.2254
  377EMC     O2 4900   4.480   0.784   2.258  0.4408  0.0627 -0.0750
  377EMC     O3 4901   0.013   0.584   2.370 -0.4880  0.2862 -0.3949
  377EMC     H1 4902   0.005   0.688   2.644 -1.2079  1.5567  1.9084
  377EMC     H2 4903   4.351   0.668   2.564 -0.4530  0.3483  0.2381
  377EMC     H3 4904   4.390   0.815   2.638 -0.0315 -1.3707  2.4036
  377EMC     C4 4905   4.400   0.802   2.035 -0.0627 -0.2389 -0.5836
  377EMC     H4 4906   4.458   0.626   2.129  0.4978  0.1812  1.5620
  377EMC     H5 4907   0.085   0.723   2.100  0.2520  1.6552  0.6179
  377EMC     H6 4908   4.382   0.749   1.942 -1.2708  0.1209 -0.5663
  377EMC     H7 4909   4.437   0.903   2.020 -0.2333 -0.3178 -1.5589
  377EMC     H8 4910   4.305   0.789   2.088  1.4763 -3.7972  1.7484
  378EMC     C1 4911   0.459   1.562   3.946  0.0428  1.0983  0.6221
  378EMC     C2 4912   0.864   1.465   3.962 -0.5006  0.5129  0.8260
  378EMC     C3 4913   0.693   1.634   3.931 -1.1927  0.1365 -0.6327
  378EMC     O1 4914   0.602   1.540   3.962  0.1329 -0.4987  0.1981
  378EMC     O2 4915   0.808   1.594   3.991 -0.8020 -0.0937 -0.1192
  378EMC     O3 4916   0.671   1.751   3.911 -0.1447 -0.2623  0.5160
  378EMC     H1 4917   0.441   1.647   3.881 -1.2812  0.2804 -0.1504
  378EMC     H2 4918   0.423   1.591   4.044  0.8385  1.2871  0.8619
  378EMC     H3 4919   0.404   1.472   3.918 -1.8404  2.1043  0.9257
  378EMC     C4 4920   0.946   1.431   4.088  0.2560 -0.0024  0.9026
  378EMC     H4 4921   0.931   1.471   3.876  0.5808  0.1993  1.6241
  378EMC     H5 4922   0.778   1.402   3.938 -0.3364  1.3300 -2.3912
  378EMC     H6 4923   1.008   1.521   4.091 -2.1744  1.7941  0.2861
  378EMC     H7 4924   1.012   1.344   4.080 -1.3019 -1.3218  1.8767
  378EMC     H8 4925   0.883   1.417   4.176 -1.1954  0.7890  0.0114
  379EMC     C1 4926   2.219   1.590   1.836  0.9555  0.2072 -0.4067
  379EMC     C2 4927   2.180   1.406   1.521 -0.2400  0.4047 -0.0749
  379EMC     C3 4928   2.357   1.483   1.671  0.1957  0.1377  0.0014
  379EMC     O1 4929   2.277   1.588   1.707  0.4004  0.0742  0.5276
  379EMC     O2 4930   2.275   1.504   1.568 -0.0638  0.1520  0.2323
  379EMC     O3 4931   2.361   1.373   1.730  0.4755 -0.1782 -0.3009
  379EMC     H1 4932   2.142   1.667   1.843  1.6870  0.9380 -0.3026
  379EMC     H2 4933   2.295   1.617   1.910  1.6112 -0.6745 -0.7471
  379EMC     H3 4934   2.184   1.487   1.843  0.2033  0.5290  1.0137
  379EMC     C4 4935   2.078   1.472   1.422 -0.1192  0.4700  0.3370
  379EMC     H4 4936   2.116   1.359   1.596  1.4932 -0.5996  0.8523
  379EMC     H5 4937   2.233   1.319   1.481 -2.8762 -0.8082 -1.1632
  379EMC     H6 4938   2.005   1.396   1.394 -1.7121  3.1254 -3.4554
  379EMC     H7 4939   2.119   1.502   1.326  0.3020 -3.6180 -0.9596
  379EMC     H8 4940   2.020   1.553   1.466 -0.6166  0.6490 -0.6185
  380EMC     C1 4941   1.232   4.090   2.565  0.3451  0.0315  0.7323
  380EMC     C2 4942   1.391   4.015   2.929 -0.2534  0.0860 -0.7094
  380EMC     C3 4943   1.263   3.936   2.734  0.7136 -0.2166 -1.0842
  380EMC     O1 4944   1.185   4.029   2.685  0.1673  0.2353  0.3242
  380EMC     O2 4945   1.272   4.005   2.858  0.2768  0.2296  0.2263
  380EMC     O3 4946   1.358   3.893   2.672 -0.1049  0.6247 -0.1761
  380EMC     H1 4947   1.332   4.130   2.584 -0.4240  3.0140 -0.7713
  380EMC     H2 4948   1.170   4.179   2.553  0.9331  0.4408  0.7217
  380EMC     H3 4949   1.228   4.028   2.475 -0.2027  1.2900 -0.1443
  380EMC     C4 4950   1.379   4.073   3.066 -0.2218 -0.2016  0.0339
  380EMC     H4 4951   1.468   4.060   2.867  1.7153 -1.3800  0.5474
  380EMC     H5 4952   1.420   3.911   2.942 -1.2727 -0.4157 -2.1121
  380EMC     H6 4953   1.318   4.016   3.136  0.1500 -0.3722  0.2236
  380EMC     H7 4954   1.348   4.177   3.061  1.4156  0.4485  1.9299
  380EMC     H8 4955   1.477   4.079   3.114 -0.2031  3.6582 -0.1973
  381EMC     C1 4956   2.765   3.000   0.188  0.6977  0.2575 -0.0136
  381EMC     C2 4957   3.049   3.100   0.488  0.2824  0.5740 -0.2907
  381EMC     C3 4958   2.822   3.036   0.426  0.4410  1.2266 -0.1972
  381EMC     O1 4959   2.852   3.041   0.292  0.3753  0.0266 -0.7423
  381EMC     O2 4960   2.902   3.101   0.508  0.3026  0.4524  0.2095
  381EMC     O3 4961   2.704   3.019   0.458 -0.7378  0.1142 -0.2777
  381EMC     H1 4962   2.711   2.906   0.199  1.5947 -0.3404 -0.5961
  381EMC     H2 4963   2.819   3.001   0.093 -0.9559 -3.7043 -1.1836
  381EMC     H3 4964   2.686   3.073   0.170 -1.6032 -2.0177  0.3590
  381EMC     C4 4965   3.123   3.111   0.621  0.5540  0.1053 -0.1142
  381EMC     H4 4966   3.077   3.189   0.432 -0.8234  0.5045 -0.9893
  381EMC     H5 4967   3.088   3.015   0.432  0.5628 -0.0977  0.9040
  381EMC     H6 4968   3.089   3.036   0.692  0.5403 -2.5923 -2.7573
  381EMC     H7 4969   3.094   3.207   0.662 -1.8729 -0.2342 -0.8803
  381EMC     H8 4970   3.231   3.108   0.603  0.6187  1.3633  0.0174
  382EMC     C1 4971   2.371   2.215   2.077 -0.0131 -0.2990 -0.4824
  382EMC     C2 4972   2.563   2.039   2.404  0.4897 -0.0022  0.6279
  382EMC     C3 4973   2.558   2.089   2.170 -0.1534 -0.6745  0.9728
  382EMC     O1 4974   2.432   2.130   2.172 -0.1535  0.3627 -0.0864
  382EMC     O2 4975   2.549   1.993   2.269  0.2647 -0.4693 -0.5105
  382EMC     O3 4976   2.618   2.059   2.064 -0.4399 -0.5667 -0.7503
  382EMC     H1 4977   2.399   2.182   1.977 -2.8194  0.3734 -1.5808
  382EMC     H2 4978   2.402   2.319   2.086  1.3201 -0.6096 -1.2654
  382EMC     H3 4979   2.265   2.208   2.102  0.2604 -0.5634  0.6811
  382EMC     C4 4980   2.510   1.931   2.490  0.2663  0.8655  0.1230
  382EMC     H4 4981   2.501   2.126   2.428  0.2856  0.3299 -0.9951
  382EMC     H5 4982   2.669   2.053   2.425  0.2729  0.1365  1.6786
  382EMC     H6 4983   2.512   1.948   2.597 -2.3203 -1.0865  0.5784
  382EMC     H7 4984   2.558   1.834   2.475  1.1727  0.8446  2.7389
  382EMC     H8 4985   2.411   1.905   2.452  0.7636 -2.1859  0.5979
  383EMC     C1 4986   1.276   2.651   4.371  0.0067  0.0201 -0.9668
  383EMC     C2 4987   1.390   2.765   0.293  0.1130 -0.3267 -0.3451
  383EMC     C3 4988   1.261   2.710   0.099  0.2780 -0.8364  0.3008
  383EMC     O1 4989   1.301   2.739   4.475 -0.0500  0.1121 -0.2578
  383EMC     O2 4990   1.348   2.798   0.163  0.1355  0.1416 -0.2873
  383EMC     O3 4991   1.233   2.595   0.138  0.1818 -0.0956  0.1536
  383EMC     H1 4992   1.343   2.565   4.383 -1.8601 -1.2283  1.4851
  383EMC     H2 4993   1.293   2.689   4.271  3.8080 -1.3717 -1.0154
  383EMC     H3 4994   1.174   2.614   4.385 -0.0132  0.2735 -0.4220
  383EMC     C4 4995   1.510   2.862   0.329  0.1899  0.6048  0.2697
  383EMC     H4 4996   1.429   2.663   0.295 -0.9048 -0.7440 -1.0236
  383EMC     H5 4997   1.304   2.774   0.360  0.2870 -0.7043 -0.0684
  383EMC     H6 4998   1.456   2.955   0.348 -0.7723  0.0670  0.2416
  383EMC     H7 4999   1.583   2.869   0.249 -2.7880 -1.2387 -2.8921
  383EMC     H8 5000   1.562   2.843   0.422 -0.1420  1.4879  0.6488
  384EMC     C1 5001   1.772   4.460   3.054 -0.0102 -0.4576  0.0071
  384EMC     C2 5002   2.177   4.300   3.132 -0.5059  0.8496  0.4291
  384EMC     C3 5003   2.007   4.469   3.086  0.2891 -0.5755 -1.7639
  384EMC     O1 5004   1.900   4.461   3.004  0.1788  0.0514  0.0194
  384EMC     O2 5005   2.077   4.360   3.046  0.1364  0.3329  0.2181
  384EMC     O3 5006   2.001   4.500   3.206  0.5322 -0.6240 -0.6830
  384EMC     H1 5007   1.700   4.431   2.977  0.8661 -0.2998 -0.8830
  384EMC     H2 5008   1.763   0.048   3.100 -1.6566 -0.8436  0.6103
  384EMC     H3 5009   1.768   4.394   3.141  0.9067  0.8620  1.0820
  384EMC     C4 5010   2.279   4.228   3.033  0.5005 -0.0847  0.1811
  384EMC     H4 5011   2.130   4.233   3.203  0.8634 -0.7540 -0.1250
  384EMC     H5 5012   2.221   4.389   3.177 -0.4672  2.2604 -2.1617
  384EMC     H6 5013   2.217   4.172   2.963  1.2107  0.4958 -0.9176
  384EMC     H7 5014   2.341   4.149   3.076  0.0333  0.0944  1.2410
  384EMC     H8 5015   2.333   4.286   2.959  0.2329 -1.1786 -0.8987
  385EMC     C1 5016   0.097   1.123   1.241  0.1132  0.8413 -0.4570
  385EMC     C2 5017   0.429   1.361   1.155  0.2018 -0.3510  0.3879
  385EMC     C3 5018   0.313   1.147   1.135 -0.7985  0.3279 -0.4687
  385EMC     O1 5019   0.182   1.181   1.141 -0.6442  0.5296 -0.4787
  385EMC     O2 5020   0.343   1.263   1.205  0.0466 -0.1695  0.2813
  385EMC     O3 5021   0.364   1.113   1.028  0.2837  0.4072  0.0295
  385EMC     H1 5022   0.115   1.169   1.338 -1.9847 -1.9009  1.3883
  385EMC     H2 5023   0.116   1.018   1.261  1.4608  1.4071  1.6076
  385EMC     H3 5024   4.507   1.141   1.200 -0.2795 -1.8991 -0.8901
  385EMC     C4 5025   0.491   1.462   1.250 -0.4126 -0.3189  0.0024
  385EMC     H4 5026   0.376   1.420   1.080  3.0326  2.3090  0.2881
  385EMC     H5 5027   0.503   1.307   1.096  1.1083 -0.5765  1.6952
  385EMC     H6 5028   0.413   1.520   1.299  0.1735 -2.2608  3.6688
  385EMC     H7 5029   0.560   1.524   1.193  0.3779 -0.2083  1.0423
  385EMC     H8 5030   0.562   1.408   1.313  0.7174 -1.0509 -1.8108
  386EMC     C1 5031   1.920   4.162   3.461  0.1252  0.1975  0.3496
  386EMC     C2 5032   1.862   4.069   3.101 -0.4133  0.2511  0.3155
  386EMC     C3 5033   1.908   3.969   3.310  0.3584  0.7990 -0.5049
  386EMC     O1 5034   1.844   4.062   3.386 -0.0924  0.3287  0.2535
  386EMC     O2 5035   1.819   4.014   3.229  0.3576  0.3846 -0.5018
  386EMC     O3 5036   2.031   3.966   3.295 -0.1234  0.2682  0.0890
  386EMC     H1 5037   1.978   4.114   3.540  1.5427  0.2338 -0.6242
  386EMC     H2 5038   1.861   4.247   3.494  0.6116 -0.0611  2.0086
  386EMC     H3 5039   1.995   4.205   3.393  1.1015  0.5103  1.5826
  386EMC     C4 5040   1.739   4.121   3.013 -0.0248  0.0958 -0.1970
  386EMC     H4 5041   1.900   3.985   3.043 -4.0314 -0.5001 -1.2769
  386EMC     H5 5042   1.934   4.150   3.113 -0.3729  0.6450 -1.9866
  386EMC     H6 5043   1.678   4.198   3.061 -1.5643  0.3528 -2.4126
  386EMC     H7 5044   1.676   4.036   2.991 -0.9786  0.0493  2.4073
  386EMC     H8 5045   1.764   4.163   2.915 -0.3976  3.5134  1.0188
  387EMC     C1 5046   3.799   3.228   3.007 -0.0100  0.5906 -0.3790
  387EMC     C2 5047   3.584   3.548   3.051 -0.1740  0.2732 -0.0944
  387EMC     C3 5048   3.736   3.400   3.164  0.4114 -0.2759 -0.2171
  387EMC     O1 5049   3.705   3.281   3.100 -0.0834 -0.0645 -0.2024
  387EMC     O2 5050   3.615   3.423   3.099 -0.3930 -0.6694  0.1389
  387EMC     O3 5051   3.838   3.462   3.132  0.1709  0.3288 -0.1719
  387EMC     H1 5052   3.877   3.179   3.066 -1.9235  1.4108  3.1219
  387EMC     H2 5053   3.855   3.305   2.953  3.8998 -1.2643  0.6309
  387EMC     H3 5054   3.752   3.159   2.936 -0.4230 -0.1862  0.6288
  387EMC     C4 5055   3.437   3.553   3.016 -0.0124 -0.4963 -0.4916
  387EMC     H4 5056   3.640   3.575   2.961 -1.0156  1.6135 -0.2412
  387EMC     H5 5057   3.617   3.624   3.122  0.4677  1.2726 -1.4125
  387EMC     H6 5058   3.400   3.466   2.962 -0.3138  1.3466 -3.4822
  387EMC     H7 5059   3.430   3.647   2.960 -1.1606  1.2102  2.2979
  387EMC     H8 5060   3.382   3.569   3.108  1.2863 -0.2108  0.2638
  388EMC     C1 5061   0.181   1.867   3.567 -0.0723 -0.7084  0.0641
  388EMC     C2 5062   0.215   2.012   3.928 -0.2293 -0.2038 -0.7961
  388EMC     C3 5063   0.313   1.888   3.757  0.1603 -0.5879 -0.1025
  388EMC     O1 5064   0.192   1.864   3.701  0.4016 -0.1337  0.4881
  388EMC     O2 5065   0.333   1.979   3.852 -0.0719  0.2753  0.8311
  388EMC     O3 5066   0.412   1.833   3.709  0.4202 -0.0203 -0.0552
  388EMC     H1 5067   0.275   1.833   3.522 -0.2097 -1.6509  0.4603
  388EMC     H2 5068   0.166   1.965   3.522  3.9136  0.3004  0.5096
  388EMC     H3 5069   0.106   1.791   3.545 -0.1988 -0.7478  0.6440
  388EMC     C4 5070   0.246   2.108   4.055  0.1639  0.4552  0.1953
  388EMC     H4 5071   0.167   1.922   3.966  1.2782 -1.9033 -2.7076
  388EMC     H5 5072   0.150   2.063   3.858  0.7896 -1.0288 -2.4035
  388EMC     H6 5073   0.152   2.162   4.065  0.0824  0.0728  1.6689
  388EMC     H7 5074   0.329   2.177   4.039  1.2212 -1.2192 -2.0167
  388EMC     H8 5075   0.267   2.059   4.150  0.3954  0.1017 -0.0375
  389EMC     C1 5076   2.922   2.625   1.601 -0.6584  0.2892  0.3329
  389EMC     C2 5077   2.525   2.596   1.841 -0.3288  0.3371  0.5733
  389EMC     C3 5078   2.707   2.621   1.697 -0.0273  0.3358  0.0042
  389EMC     O1 5079   2.833   2.658   1.700  0.5617 -0.4509  0.0414
  389EMC     O2 5080   2.652   2.651   1.816 -0.0317  0.3392 -0.3522
  389EMC     O3 5081   2.643   2.580   1.602 -0.4796  0.2487 -0.2735
  389EMC     H1 5082   3.020   2.665   1.628 -0.3311 -0.0235 -0.3561
  389EMC     H2 5083   2.888   2.667   1.507 -1.8882  0.2556  0.7458
  389EMC     H3 5084   2.939   2.517   1.595  1.3856  0.4808  1.6433
  389EMC     C4 5085   2.479   2.587   1.987 -0.0826  0.2195 -0.2078
  389EMC     H4 5086   2.536   2.489   1.823 -0.6864  0.1970  1.1556
  389EMC     H5 5087   2.462   2.638   1.763  2.6696  1.0143 -1.6795
  389EMC     H6 5088   2.393   2.520   1.990  0.3200 -0.2757  0.5386
  389EMC     H7 5089   2.454   2.690   2.011 -2.5207  0.0219 -1.5047
  389EMC     H8 5090   2.554   2.554   2.059 -0.3951 -0.9133 -0.3754
  390EMC     C1 5091   2.995   2.682   2.144 -0.1506  0.1328 -0.0947
  390EMC     C2 5092   3.389   2.877   2.230  0.7293  0.6624 -0.1983
  390EMC     C3 5093   3.160   2.822   2.225 -0.3534 -0.1181 -0.3132
  390EMC     O1 5094   3.121   2.699   2.208 -0.5396  0.3241  0.3584
  390EMC     O2 5095   3.286   2.776   2.234 -0.3258 -0.2725  0.0415
  390EMC     O3 5096   3.110   2.924   2.175  0.3294 -0.4032  0.0983
  390EMC     H1 5097   2.923   2.752   2.185 -0.1856 -0.2377  0.4840
  390EMC     H2 5098   2.962   2.578   2.151  1.4651 -0.2811  2.5921
  390EMC     H3 5099   3.006   2.702   2.037 -1.2457 -1.8462 -0.6396
  390EMC     C4 5100   3.527   2.817   2.195  0.0820  0.6847 -0.3193
  390EMC     H4 5101   3.384   2.935   2.322  1.1793 -0.1429  0.3548
  390EMC     H5 5102   3.369   2.950   2.152  2.7500  0.4789 -0.9500
  390EMC     H6 5103   3.526   2.763   2.100  0.2721  0.9847 -0.4930
  390EMC     H7 5104   3.546   2.740   2.270 -0.5710  0.5981 -0.2313
  390EMC     H8 5105   3.609   2.888   2.201  1.1075 -0.5148  0.1362
  391EMC     C1 5106   3.370   3.955   3.119  0.0438  0.0192 -0.6155
  391EMC     C2 5107   3.794   4.091   2.996  0.1470 -0.0829 -0.0996
  391EMC     C3 5108   3.595   3.990   3.077  0.6711  0.1398  0.1732
  391EMC     O1 5109   3.488   4.014   3.151 -0.4169  0.2338  0.2274
  391EMC     O2 5110   3.681   4.088   3.083  0.1105  0.1726 -0.3537
  391EMC     O3 5111   3.596   3.900   2.994 -0.6645 -0.2535 -0.4258
  391EMC     H1 5112   3.355   3.937   3.012 -0.3988  0.3232 -0.6041
  391EMC     H2 5113   3.282   4.001   3.162  0.3725  1.8672 -1.8155
  391EMC     H3 5114   3.386   3.860   3.170 -0.9224  0.9418  1.4940
  391EMC     C4 5115   3.885   4.196   3.049 -0.4867 -0.3360  0.1826
  391EMC     H4 5116   3.767   4.122   2.895  3.1739 -3.6725 -2.2785
  391EMC     H5 5117   3.836   3.991   2.998  2.2910  0.7683  1.9379
  391EMC     H6 5118   3.852   4.298   3.067 -1.5950 -1.1419  3.3001
  391EMC     H7 5119   3.988   4.203   3.013 -1.2045 -0.1215 -1.9376
  391EMC     H8 5120   3.904   4.172   3.154 -1.2365  1.3127  0.7236
  392EMC     C1 5121   1.173   4.478   3.389 -0.0912 -0.1650 -0.0594
  392EMC     C2 5122   1.298   0.108   3.078 -0.3280  0.8385 -0.1817
  392EMC     C3 5123   1.090   0.073   3.194  0.2388 -0.4903 -0.9050
  392EMC     O1 5124   1.120   4.465   3.255  0.2165 -0.1181  0.3285
  392EMC     O2 5125   1.185   0.019   3.108  0.3391 -0.1544  0.4173
  392EMC     O3 5126   1.099   0.183   3.252  0.9546  0.0798 -0.5804
  392EMC     H1 5127   1.269   0.016   3.370 -0.4743 -0.8060 -4.8374
  392EMC     H2 5128   1.184   4.380   3.435 -2.7413 -0.8857 -0.7829
  392EMC     H3 5129   1.114   0.028   3.459 -1.5431  1.1633 -2.2912
  392EMC     C4 5130   1.418   0.027   3.021 -0.1841  0.4904  0.3412
  392EMC     H4 5131   1.332   0.152   3.172 -0.4025 -2.0288  1.3227
  392EMC     H5 5132   1.273   0.185   3.006 -0.8916  1.9784  1.1879
  392EMC     H6 5133   1.506   0.089   3.005  0.9823 -1.1262  0.2748
  392EMC     H7 5134   1.392   4.510   2.918 -1.6330  1.5359  0.4063
  392EMC     H8 5135   1.453   4.456   3.084 -0.1555  0.3931  0.2015
  393EMC     C1 5136   3.003   0.315   3.385 -0.2117  0.2508 -0.9829
  393EMC     C2 5137   2.822   0.577   3.225  0.8101 -0.6311 -0.0546
  393EMC     C3 5138   2.889   0.347   3.185  0.0029 -0.3289 -1.0190
  393EMC     O1 5139   2.998   0.355   3.250  0.4232 -0.5051  0.2428
  393EMC     O2 5140   2.918   0.480   3.176 -0.2557 -0.6319 -0.4673
  393EMC     O3 5141   2.784   0.308   3.236  0.0252  0.0928  0.0987
  393EMC     H1 5142   2.965   0.395   3.449  0.2634 -0.2141 -0.1122
  393EMC     H2 5143   3.109   0.304   3.409  0.1131  0.5486 -2.1868
  393EMC     H3 5144   2.953   0.219   3.397  0.5984  0.0605  1.2436
  393EMC     C4 5145   2.885   0.712   3.235 -0.3226 -0.2621 -0.5972
  393EMC     H4 5146   2.805   0.551   3.329  3.7278 -0.2332  0.6075
  393EMC     H5 5147   2.730   0.581   3.166  0.2286  1.4961  0.9107
  393EMC     H6 5148   2.976   0.711   3.295 -0.8384 -0.7858  0.1986
  393EMC     H7 5149   2.820   0.788   3.279  0.3892  0.8182 -1.3447
  393EMC     H8 5150   2.914   0.754   3.138  1.4134 -1.4721 -0.6582
  394EMC     C1 5151   1.900   0.968   2.305  0.4756  0.8990  0.2558
  394EMC     C2 5152   2.114   1.221   2.029  0.7329  0.3277 -0.3571
  394EMC     C3 5153   2.005   1.163   2.245 -0.0447  0.7663 -0.3489
  394EMC     O1 5154   1.901   1.092   2.234 -0.2406 -0.4690  0.6035
  394EMC     O2 5155   1.999   1.202   2.115  0.2978  0.3684 -0.1323
  394EMC     O3 5156   2.107   1.145   2.312 -0.1966  0.2901 -0.5834
  394EMC     H1 5157   1.996   0.930   2.341 -0.0513 -0.6978  0.0445
  394EMC     H2 5158   1.855   0.895   2.237  0.3028  0.5038  0.7904
  394EMC     H3 5159   1.843   0.968   2.398  0.0499  1.0678 -0.0051
  394EMC     C4 5160   2.077   1.182   1.888 -0.0720  0.7273 -0.6180
  394EMC     H4 5161   2.197   1.158   2.058  0.5331 -1.0324 -2.5152
  394EMC     H5 5162   2.130   1.327   2.051  1.2718  0.1760 -0.0172
  394EMC     H6 5163   2.044   1.078   1.894  0.2787  0.6792  1.8430
  394EMC     H7 5164   2.164   1.177   1.823  0.3783 -2.0127  0.0607
  394EMC     H8 5165   2.004   1.255   1.853 -2.2579 -0.8482  0.4160
  395EMC     C1 5166   2.075   0.720   2.100 -0.8314  0.1049  0.5565
  395EMC     C2 5167   2.341   0.490   2.310 -0.3486 -0.3643  0.3865
  395EMC     C3 5168   2.269   0.704   2.229 -0.3782 -0.1081 -0.8188
  395EMC     O1 5169   2.139   0.706   2.225 -0.0391  0.0427 -0.6999
  395EMC     O2 5170   2.276   0.567   2.214 -1.0850 -0.1975  0.0619
  395EMC     O3 5171   2.330   0.767   2.315 -0.0454 -0.3768 -0.4392
  395EMC     H1 5172   1.969   0.743   2.113 -0.7859  1.6267 -1.3830
  395EMC     H2 5173   2.078   0.640   2.026 -1.9256  1.5574 -1.1271
  395EMC     H3 5174   2.117   0.808   2.052 -0.1535 -0.7972 -0.5750
  395EMC     C4 5175   2.356   0.352   2.237 -0.3040 -0.3450  0.6483
  395EMC     H4 5176   2.279   0.478   2.398  0.2389 -0.9188  0.7344
  395EMC     H5 5177   2.437   0.528   2.345  0.6018 -2.6095  0.3828
  395EMC     H6 5178   2.256   0.315   2.214  0.2748 -1.1273 -0.7382
  395EMC     H7 5179   2.395   0.278   2.308  0.6172  1.1406  1.7506
  395EMC     H8 5180   2.425   0.357   2.152  1.5980  1.2683  2.1755
  396EMC     C1 5181   0.462   2.312   0.893 -1.3646 -0.1592  0.8036
  396EMC     C2 5182   0.291   1.917   1.025  1.0373 -0.0272 -0.4469
  396EMC     C3 5183   0.320   2.157   1.000  0.8675  0.1207  0.1995
  396EMC     O1 5184   0.431   2.212   0.987  0.2214 -0.2472 -0.5078
  396EMC     O2 5185   0.364   2.039   1.048  0.4148 -0.8961  0.4534
  396EMC     O3 5186   0.213   2.189   0.939 -0.0486 -0.1865 -0.4654
  396EMC     H1 5187   0.568   2.329   0.907 -1.1547  0.8820 -1.5999
  396EMC     H2 5188   0.407   2.401   0.923 -1.4564 -0.3737  1.2825
  396EMC     H3 5189   0.442   2.273   0.793 -0.7153 -0.8917  0.9474
  396EMC     C4 5190   0.362   1.803   1.103 -0.0793  0.4507 -0.1503
  396EMC     H4 5191   0.294   1.901   0.917 -0.3688  0.3498 -0.5572
  396EMC     H5 5192   0.189   1.918   1.063  0.7878  1.0522 -1.0813
  396EMC     H6 5193   0.298   1.715   1.106 -1.3132  1.3489  2.9590
  396EMC     H7 5194   0.376   1.829   1.208 -3.3987 -0.6899  0.6700
  396EMC     H8 5195   0.451   1.777   1.045 -0.7521 -1.1020 -0.5270
  397EMC     C1 5196   3.083   3.038   2.924  0.5956 -0.3238  0.2011
  397EMC     C2 5197   3.110   2.632   3.000  0.1408 -0.6558  0.1353
  397EMC     C3 5198   3.173   2.828   2.886  0.2020  0.4300 -0.1384
  397EMC     O1 5199   3.088   2.914   2.854  0.1552  0.1104 -0.5603
  397EMC     O2 5200   3.096   2.716   2.887 -0.1356 -0.3489  0.0855
  397EMC     O3 5201   3.265   2.847   2.968 -0.1543 -0.3852  0.1457
  397EMC     H1 5202   3.052   3.025   3.027 -0.2610 -1.0149 -0.1303
  397EMC     H2 5203   3.014   3.109   2.878  0.4377  0.1021  1.0718
  397EMC     H3 5204   3.187   3.070   2.936  1.0276 -1.4893 -0.3096
  397EMC     C4 5205   3.028   2.502   2.975  0.2997  1.4133 -0.0503
  397EMC     H4 5206   3.068   2.684   3.086 -1.7666 -0.0265 -1.0949
  397EMC     H5 5207   3.215   2.605   3.012 -0.3026 -1.8430  1.6565
  397EMC     H6 5208   2.929   2.530   2.939 -0.6002 -1.4505 -0.0509
  397EMC     H7 5209   3.022   2.439   3.063 -0.3108  0.2957 -0.8688
  397EMC     H8 5210   3.075   2.444   2.896 -0.6488  0.4716  0.0575
  398EMC     C1 5211   2.760   1.869   3.731 -0.7813 -0.1494  0.2592
  398EMC     C2 5212   2.547   1.948   3.431  0.1102 -0.2578 -0.2012
  398EMC     C3 5213   2.769   2.003   3.533 -0.2436  0.4940  0.3697
  398EMC     O1 5214   2.734   1.993   3.668  0.4878  0.5270 -0.3415
  398EMC     O2 5215   2.635   2.011   3.528 -0.1723 -0.0217 -0.0496
  398EMC     O3 5216   2.825   1.911   3.469 -0.4559  0.1604  0.6956
  398EMC     H1 5217   2.744   1.878   3.838  0.3380  0.2655  0.4111
  398EMC     H2 5218   2.862   1.839   3.707 -1.3964 -2.2499  0.1056
  398EMC     H3 5219   2.698   1.789   3.693  2.2779 -1.0016 -3.6404
  398EMC     C4 5220   2.403   1.922   3.468  0.1071  0.2497  0.3506
  398EMC     H4 5221   2.587   1.848   3.418  0.3245 -0.0392 -1.3640
  398EMC     H5 5222   2.552   2.002   3.336 -4.1712 -0.2884 -0.6215
  398EMC     H6 5223   2.346   1.881   3.385 -2.9165 -0.3734  2.5573
  398EMC     H7 5224   2.356   2.014   3.503  1.8981  0.8080  1.3863
  398EMC     H8 5225   2.400   1.848   3.548 -1.4498 -0.1138 -0.0032
  399EMC     C1 5226   0.090   3.297   0.865 -0.9546 -0.0210  0.6289
  399EMC     C2 5227   4.431   3.561   1.057 -0.8526  0.2842  0.7862
  399EMC     C3 5228   0.056   3.368   1.089 -0.8839  0.6118  0.3073
  399EMC     O1 5229   0.010   3.312   0.982  0.2890  0.1647 -0.3650
  399EMC     O2 5230   4.444   3.420   1.073  0.4301  0.2659  0.3664
  399EMC     O3 5231   0.169   3.424   1.091  0.6663  0.1705 -0.0606
  399EMC     H1 5232   0.019   3.318   0.785  1.1926  1.1485 -1.0510
  399EMC     H2 5233   0.127   3.196   0.848  1.7152  1.2638 -1.9085
  399EMC     H3 5234   0.171   3.370   0.863  0.4941 -1.5362  1.1646
  399EMC     C4 5235   4.280   3.596   1.045  0.6265  0.4438  0.5494
  399EMC     H4 5236   4.497   3.584   0.973  0.2480 -0.1386  1.5065
  399EMC     H5 5237   4.484   3.612   1.137  0.7157  0.5458 -0.3760
  399EMC     H6 5238   4.246   3.699   1.048 -1.5692 -0.2228  3.8620
  399EMC     H7 5239   4.235   3.568   1.140 -0.2907  1.3649  0.3928
  399EMC     H8 5240   4.229   3.534   0.971  0.8655 -1.4479  1.8785
  400EMC     C1 5241   3.146   0.743   0.176  0.4915 -0.4425  0.2442
  400EMC     C2 5242   2.921   0.408   0.175  0.7022  0.4247 -0.1291
  400EMC     C3 5243   2.941   0.639   0.227 -0.7140  0.2873  0.1483
  400EMC     O1 5244   3.068   0.658   0.259  0.8965  0.1887  0.0284
  400EMC     O2 5245   2.974   0.511   0.261  0.3883 -0.1047  0.2918
  400EMC     O3 5246   2.895   0.669   0.114  0.0871 -0.1866  0.0368
  400EMC     H1 5247   3.089   0.835   0.168 -1.9483 -1.8687  0.0860
  400EMC     H2 5248   3.149   0.699   0.076 -2.6112 -0.8813  0.2416
  400EMC     H3 5249   3.241   0.773   0.219 -0.3400  5.0669 -1.0780
  400EMC     C4 5250   2.910   0.267   0.249 -0.4835 -0.2931  0.6252
  400EMC     H4 5251   2.983   0.405   0.085  1.0242  1.8447  0.0095
  400EMC     H5 5252   2.817   0.427   0.149  0.3366 -1.1317  0.1289
  400EMC     H6 5253   3.008   0.223   0.264  0.3605  1.4967  0.5691
  400EMC     H7 5254   2.863   0.195   0.181  0.5750 -1.6883  1.3237
  400EMC     H8 5255   2.841   0.266   0.334  1.3216 -0.6340  2.1741
  401EMC     C1 5256   4.423   2.702   3.358  0.6604 -0.3936 -0.0246
  401EMC     C2 5257   0.285   2.698   3.504  0.1147  0.0283  0.2318
  401EMC     C3 5258   0.140   2.643   3.324 -0.0338 -0.7112 -0.0188
  401EMC     O1 5259   0.047   2.738   3.360 -0.0550 -0.5109 -0.2469
  401EMC     O2 5260   0.203   2.740   3.400  0.6187  0.0114  0.6875
  401EMC     O3 5261   0.131   2.531   3.362  0.1348 -0.1991 -0.4062
  401EMC     H1 5262   4.397   2.651   3.451  0.2758  1.4766  0.9513
  401EMC     H2 5263   4.378   2.642   3.279  0.4971 -0.4408  0.1038
  401EMC     H3 5264   4.387   2.805   3.357  1.9126  0.0637 -0.1410
  401EMC     C4 5265   0.369   2.809   3.557 -0.5396 -0.0442  0.1267
  401EMC     H4 5266   0.372   2.637   3.479  0.2036  0.2138  0.0851
  401EMC     H5 5267   0.234   2.641   3.582 -0.0264 -1.0647 -0.6146
  401EMC     H6 5268   0.308   2.895   3.584 -1.5615 -0.7075 -0.0235
  401EMC     H7 5269   0.445   2.836   3.484  2.3088 -0.2194  2.8463
  401EMC     H8 5270   0.431   2.777   3.641 -0.8057 -0.3363  0.2130
  402EMC     C1 5271   1.367   2.052   0.358 -0.2987 -0.3168  0.5950
  402EMC     C2 5272   1.429   1.685   0.299 -0.0202 -0.2821  0.1920
  402EMC     C3 5273   1.256   1.849   0.299 -0.0814  0.0616  0.0122
  402EMC     O1 5274   1.330   1.953   0.267 -0.2106  0.5480 -0.2237
  402EMC     O2 5275   1.369   1.799   0.243 -0.4273 -0.3721  0.1872
  402EMC     O3 5276   1.218   1.813   0.409 -0.1449  0.6981  0.0461
  402EMC     H1 5277   1.279   2.082   0.415  0.2793 -1.1239  1.9640
  402EMC     H2 5278   1.398   2.138   0.299 -0.2331 -0.3757  0.5437
  402EMC     H3 5279   1.456   2.028   0.417  0.9741  1.1472 -0.6543
  402EMC     C4 5280   1.470   1.590   0.187  0.2177  0.5289 -0.0968
  402EMC     H4 5281   1.363   1.634   0.369  1.8928 -0.6934  1.7856
  402EMC     H5 5282   1.516   1.724   0.351  1.6987 -2.1778 -1.1201
  402EMC     H6 5283   1.537   1.507   0.210  1.0985  1.2804  0.1131
  402EMC     H7 5284   1.521   1.645   0.109 -0.5845  2.9079  0.9677
  402EMC     H8 5285   1.384   1.540   0.143  0.3540 -1.0341  1.3147
  403EMC     C1 5286   0.393   0.839   1.396  0.0010  0.3265  0.2692
  403EMC     C2 5287   0.388   1.138   1.699  0.2273 -0.2635 -1.0038
  403EMC     C3 5288   0.451   1.034   1.500  0.1287 -0.5886  0.0134
  403EMC     O1 5289   0.393   0.979   1.398  0.1727 -0.4679 -0.0575
  403EMC     O2 5290   0.352   1.093   1.572  0.3012 -0.1623 -0.0295
  403EMC     O3 5291   0.564   1.003   1.551  0.2644  0.3487  0.2655
  403EMC     H1 5292   0.491   0.796   1.370 -0.6062 -0.5170 -0.7240
  403EMC     H2 5293   0.339   0.814   1.304  0.2531  0.4487  0.0855
  403EMC     H3 5294   0.342   0.791   1.479  1.1888 -1.3004  0.1179
  403EMC     C4 5295   0.458   1.278   1.695 -0.1417 -0.9570  0.3208
  403EMC     H4 5296   0.433   1.062   1.763 -1.7488  1.4946  2.8342
  403EMC     H5 5297   0.292   1.158   1.747  1.4118 -0.1282  1.4589
  403EMC     H6 5298   0.562   1.264   1.665  0.2307 -0.0392  1.1251
  403EMC     H7 5299   0.462   1.311   1.799  1.7860  0.9790 -0.3045
  403EMC     H8 5300   0.411   1.351   1.629  1.1948 -1.0179 -0.7416
  404EMC     C1 5301   2.599   3.382   3.809  0.1374  0.0477 -0.1138
  404EMC     C2 5302   2.422   3.649   3.511  0.0989 -0.3042  0.4018
  404EMC     C3 5303   2.583   3.508   3.617 -0.4540 -0.3667 -0.5025
  404EMC     O1 5304   2.557   3.503   3.744 -0.1032 -0.3232  0.0566
  404EMC     O2 5305   2.481   3.594   3.625  0.2410  0.1823 -0.1739
  404EMC     O3 5306   2.579   3.404   3.544 -0.0611 -0.2144  0.0638
  404EMC     H1 5307   2.659   3.315   3.746 -1.8274 -0.4780 -1.5123
  404EMC     H2 5308   2.506   3.331   3.834  1.0195 -1.4497  0.2442
  404EMC     H3 5309   2.662   3.398   3.896 -2.3526  1.5586  1.5275
  404EMC     C4 5310   2.313   3.745   3.541  0.1857  0.5758  0.6726
  404EMC     H4 5311   2.392   3.557   3.461  0.5590 -1.2915  1.8680
  404EMC     H5 5312   2.481   3.712   3.445 -2.8654  0.4492 -1.7540
  404EMC     H6 5313   2.270   3.783   3.448  1.5705  0.0300 -0.2157
  404EMC     H7 5314   2.358   3.826   3.599  1.7353 -0.3029  0.7494
  404EMC     H8 5315   2.240   3.690   3.601  0.1152 -1.8952 -1.5264
  405EMC     C1 5316   1.344   0.462   4.354 -0.1068 -0.1137 -0.0427
  405EMC     C2 5317   0.970   0.666   4.422 -0.6512 -0.0830  0.1595
  405EMC     C3 5318   1.114   0.482   4.401  0.1921  0.4099  0.0838
  405EMC     O1 5319   1.218   0.527   4.325  0.7860  0.5336 -0.3037
  405EMC     O2 5320   1.054   0.585   4.346  0.1050  0.5760 -0.0063
  405EMC     O3 5321   1.113   0.450   0.011 -0.6612 -0.9569 -0.1342
  405EMC     H1 5322   1.397   0.476   4.260 -0.7761  0.5581 -0.3327
  405EMC     H2 5323   1.324   0.358   4.377 -0.1436 -0.2192 -0.5523
  405EMC     H3 5324   1.406   0.518   4.425 -2.4244  0.4495  1.6810
  405EMC     C4 5325   0.867   0.744   4.342 -0.2316  0.1057 -0.2517
  405EMC     H4 5326   1.024   0.745   4.473  1.9428  0.5747 -3.2451
  405EMC     H5 5327   0.913   0.609   4.496 -1.1713 -2.3461 -1.8516
  405EMC     H6 5328   0.902   0.794   4.252 -3.2379  1.4897 -0.7769
  405EMC     H7 5329   0.828   0.819   4.410 -0.9713  0.5823 -1.1813
  405EMC     H8 5330   0.783   0.690   4.298 -0.8484  1.9578 -1.4569
  406EMC     C1 5331   3.604   1.914   2.380  0.1917 -0.2532 -0.2838
  406EMC     C2 5332   3.877   1.724   2.091 -0.3043 -0.1104 -0.1241
  406EMC     C3 5333   3.737   1.767   2.265 -0.2811  0.2576 -0.0450
  406EMC     O1 5334   3.731   1.874   2.323 -0.0696 -0.0810  0.1114
  406EMC     O2 5335   3.864   1.773   2.222  0.1256  0.5103 -0.7447
  406EMC     O3 5336   3.645   1.696   2.221  0.0004  0.1005  0.0092
  406EMC     H1 5337   3.537   1.929   2.296 -1.7598  0.3586  1.2980
  406EMC     H2 5338   3.617   2.013   2.425  0.4802  1.4640 -3.8351
  406EMC     H3 5339   3.557   1.845   2.451 -0.4566 -1.0057 -1.4125
  406EMC     C4 5340   4.015   1.769   2.024 -0.4602  0.0063 -0.1306
  406EMC     H4 5341   3.808   1.772   2.022  1.4155  0.4063 -1.5941
  406EMC     H5 5342   3.861   1.618   2.070  1.0778 -0.0179 -1.9121
  406EMC     H6 5343   4.000   1.734   1.922 -2.1989  0.0376  0.0763
  406EMC     H7 5344   4.097   1.720   2.076 -1.4950 -0.2043  1.3699
  406EMC     H8 5345   4.036   1.876   2.035 -1.3483  0.3334 -1.3696
  407EMC     C1 5346   0.474   3.100   0.707  0.3590  0.7138  0.3478
  407EMC     C2 5347   0.476   2.668   0.567 -0.3748 -0.8449 -0.2109
  407EMC     C3 5348   0.486   2.868   0.695  0.0390  0.2755 -0.2017
  407EMC     O1 5349   0.536   2.984   0.654  1.0063 -0.1898  0.0375
  407EMC     O2 5350   0.534   2.792   0.595 -0.0409 -0.6943 -0.4699
  407EMC     O3 5351   0.382   2.845   0.753 -0.0178 -0.3844 -0.2489
  407EMC     H1 5352   0.422   3.089   0.802  1.6071  0.7625  1.0498
  407EMC     H2 5353   0.397   3.147   0.645  2.7028  0.1904 -3.2987
  407EMC     H3 5354   0.550   3.177   0.715  0.4035  0.7669 -0.4432
  407EMC     C4 5355   0.534   2.597   0.444  0.2256  0.5127  1.2613
  407EMC     H4 5356   0.369   2.688   0.558  0.3387  3.6643 -1.4533
  407EMC     H5 5357   0.487   2.624   0.666 -0.6844  0.2746  0.3416
  407EMC     H6 5358   0.639   2.568   0.453  0.0592 -0.6236 -0.1258
  407EMC     H7 5359   0.521   2.659   0.356  1.1431  0.1179  0.8379
  407EMC     H8 5360   0.494   2.497   0.424 -0.3829  1.0019 -0.0820
  408EMC     C1 5361   1.092   1.974   1.476  0.3847 -0.2752  0.1162
  408EMC     C2 5362   1.343   2.026   1.131 -0.7471 -0.5515 -0.0260
  408EMC     C3 5363   1.153   1.983   1.256  0.8741  0.9312 -0.7303
  408EMC     O1 5364   1.191   1.961   1.382 -0.2980 -0.7996 -0.1839
  408EMC     O2 5365   1.237   2.073   1.209 -0.0407  0.8183  0.3932
  408EMC     O3 5366   1.031   1.982   1.216  0.3293  0.3229 -0.3601
  408EMC     H1 5367   1.126   1.922   1.565 -1.0176  1.8642  2.0025
  408EMC     H2 5368   0.994   1.934   1.450  0.3263 -0.0627  0.0109
  408EMC     H3 5369   1.083   2.078   1.506 -0.5453 -0.7764  1.7018
  408EMC     C4 5370   1.469   1.994   1.208 -0.3679 -0.0940  0.3634
  408EMC     H4 5371   1.359   2.094   1.048 -0.2681  1.6325  1.7738
  408EMC     H5 5372   1.305   1.934   1.086 -1.7391 -0.7876  1.2202
  408EMC     H6 5373   1.462   1.897   1.257 -0.3960 -0.8630 -1.1303
  408EMC     H7 5374   1.504   2.069   1.280  2.0976 -1.9501  1.2227
  408EMC     H8 5375   1.545   1.980   1.132 -0.5054 -2.3976  0.5929
  409EMC     C1 5376   4.017   0.291   2.675  0.3017  0.5179  0.3235
  409EMC     C2 5377   3.751   0.349   2.987 -0.2038 -0.5404  0.1761
  409EMC     C3 5378   3.931   0.225   2.895  0.2413  0.3489 -0.0942
  409EMC     O1 5379   4.011   0.297   2.818 -0.7325  0.8953  0.2657
  409EMC     O2 5380   3.879   0.342   2.930  0.2281 -0.4382  0.4694
  409EMC     O3 5381   3.868   0.124   2.852 -0.7446 -1.0054  0.0360
  409EMC     H1 5382   3.939   0.247   2.614  0.1659  0.0411  0.8313
  409EMC     H2 5383   4.107   0.239   2.642  0.7959  2.2025 -1.1188
  409EMC     H3 5384   4.009   0.392   2.634  0.0086 -1.2499 -4.6186
  409EMC     C4 5385   3.751   0.344   3.140 -0.6144 -0.1478 -0.2878
  409EMC     H4 5386   3.687   0.274   2.941  0.1956 -0.0217 -1.2695
  409EMC     H5 5387   3.702   0.442   2.958  1.1416  0.2715  0.3991
  409EMC     H6 5388   3.796   0.438   3.171  0.7245 -0.8780  0.0814
  409EMC     H7 5389   3.796   0.253   3.181  0.4077 -0.2155 -1.4827
  409EMC     H8 5390   3.653   0.365   3.181  0.7538  2.0738  2.1174
  410EMC     C1 5391   0.796   3.295   1.025 -0.0482  0.3607  0.2343
  410EMC     C2 5392   0.398   3.255   1.262 -0.3524 -1.9238 -0.3304
  410EMC     C3 5393   0.586   3.237   1.104  0.5692 -0.8971  0.0113
  410EMC     O1 5394   0.691   3.316   1.109  0.0943 -0.1275  0.2713
  410EMC     O2 5395   0.544   3.255   1.232 -0.4277  0.0441 -0.5333
  410EMC     O3 5396   0.523   3.208   1.003  0.1096 -0.2400  0.2683
  410EMC     H1 5397   0.758   3.271   0.926 -1.1111 -2.1611  1.1763
  410EMC     H2 5398   0.857   3.212   1.061 -1.0116  0.0883  1.3024
  410EMC     H3 5399   0.853   3.388   1.024 -2.0971  1.7291  1.7630
  410EMC     C4 5400   0.335   3.121   1.254 -0.1254 -0.1849 -0.1134
  410EMC     H4 5401   0.347   3.316   1.188  0.5132 -0.9207 -0.1308
  410EMC     H5 5402   0.388   3.298   1.362  1.3047 -2.9549  0.3271
  410EMC     H6 5403   0.226   3.115   1.257 -0.2713 -1.9680 -3.7004
  410EMC     H7 5404   0.373   3.058   1.335  2.3360  0.3270 -0.7753
  410EMC     H8 5405   0.362   3.074   1.160  2.7261  1.2673 -0.1244
  411EMC     C1 5406   3.244   1.018   2.654 -0.5489  0.4929 -0.5878
  411EMC     C2 5407   3.398   1.216   3.041 -0.6085 -0.1706  0.1185
  411EMC     C3 5408   3.327   1.081   2.861 -0.6373 -0.0212 -0.6966
  411EMC     O1 5409   3.346   1.073   2.730 -0.3337 -0.0609 -0.9021
  411EMC     O2 5410   3.423   1.161   2.915 -0.1618 -0.2909 -0.4724
  411EMC     O3 5411   3.238   1.038   2.926 -0.1087  0.1270  0.2874
  411EMC     H1 5412   3.249   0.910   2.669  0.3358  0.4636 -1.0327
  411EMC     H2 5413   3.244   1.046   2.549  0.0346  1.1009 -0.4294
  411EMC     H3 5414   3.157   1.068   2.695  1.2076  4.0010 -0.7743
  411EMC     C4 5415   3.438   1.130   3.166  0.2827 -0.5012  0.8179
  411EMC     H4 5416   3.290   1.227   3.048 -0.6292  3.1090 -2.5186
  411EMC     H5 5417   3.432   1.318   3.056 -1.7405  0.3682 -0.8264
  411EMC     H6 5418   3.451   1.196   3.252 -0.2694  0.6990  0.0047
  411EMC     H7 5419   3.531   1.077   3.143  1.0725  1.4337 -0.7156
  411EMC     H8 5420   3.358   1.059   3.187  1.6889 -2.6404 -0.5982
  412EMC     C1 5421   2.673   1.160   0.950  0.4727  0.1110 -0.3226
  412EMC     C2 5422   2.529   1.169   0.555  0.6087  0.7824 -0.6572
  412EMC     C3 5423   2.621   1.068   0.746 -0.3273 -0.3398 -0.0283
  412EMC     O1 5424   2.575   1.107   0.862 -0.2745  0.4619 -0.4020
  412EMC     O2 5425   2.513   1.096   0.676 -0.8476  0.2235 -0.4353
  412EMC     O3 5426   2.738   1.096   0.709  0.7257  0.4683 -0.5394
  412EMC     H1 5427   2.634   1.153   1.051 -0.4738 -1.1345 -0.7467
  412EMC     H2 5428   2.664   1.262   0.910 -2.5684 -0.1344 -0.5211
  412EMC     H3 5429   2.778   1.131   0.955  0.7418  1.2239  0.9019
  412EMC     C4 5430   2.409   1.147   0.476  1.2211  0.1668 -0.1495
  412EMC     H4 5431   2.614   1.125   0.502  0.3774  1.4403 -1.5995
  412EMC     H5 5432   2.531   1.278   0.560  3.8709  0.8004 -0.0066
  412EMC     H6 5433   2.409   1.170   0.370 -5.2033  0.0623 -0.5546
  412EMC     H7 5434   2.333   1.220   0.504  1.8963  0.6814  0.3589
  412EMC     H8 5435   2.373   1.045   0.492  1.2429  0.3546  1.1689
  413EMC     C1 5436   1.617   0.056   1.150  0.4616  0.5717 -0.3660
  413EMC     C2 5437   1.306   4.492   0.993  0.5785  0.1044 -0.5191
  413EMC     C3 5438   1.440   4.420   1.191 -0.0946  0.2950  0.2502
  413EMC     O1 5439   1.494   0.031   1.209  0.3209 -0.3464 -0.1784
  413EMC     O2 5440   1.364   0.009   1.119 -0.4411 -0.1941 -0.0150
  413EMC     O3 5441   1.492   4.324   1.129 -0.0466 -0.5746 -0.3720
  413EMC     H1 5442   1.626   0.056   1.041 -0.3518 -1.1810 -0.4660
  413EMC     H2 5443   1.685   4.487   1.181 -0.9668 -0.7546 -0.5115
  413EMC     H3 5444   1.661   0.147   1.190 -0.1607  0.4752  0.5766
  413EMC     C4 5445   1.259   0.124   0.951  0.2969  0.0413  0.4277
  413EMC     H4 5446   1.222   4.424   1.004 -0.9179  1.9799  0.0687
  413EMC     H5 5447   1.370   4.437   0.924 -1.3350 -1.3902 -1.1622
  413EMC     H6 5448   1.167   0.146   1.006 -2.1309 -0.8152 -2.9552
  413EMC     H7 5449   1.234   0.133   0.845  1.5040 -1.3615 -0.0137
  413EMC     H8 5450   1.331   0.202   0.976 -0.4942  1.4778 -1.4863
  414EMC     C1 5451   0.383   4.124   4.046  1.0029  0.0279  0.1024
  414EMC     C2 5452   0.384   4.291   4.387 -0.3798  0.6502 -0.1100
  414EMC     C3 5453   0.523   4.183   4.221  0.3047  0.4512 -0.9352
  414EMC     O1 5454   0.426   4.112   4.182 -0.3847 -0.1884  0.7646
  414EMC     O2 5455   0.469   4.183   4.341  0.0099 -0.2421  0.2159
  414EMC     O3 5456   0.558   4.283   4.170  0.2929 -0.4098  0.1588
  414EMC     H1 5457   0.334   4.038   4.000  3.8306 -0.4044 -2.4092
  414EMC     H2 5458   0.471   4.143   3.984  0.8746 -1.6807 -0.6551
  414EMC     H3 5459   0.312   4.206   4.037 -0.5149 -0.9529  2.2404
  414EMC     C4 5460   0.346   4.281   0.028  0.4613 -0.5417 -0.4934
  414EMC     H4 5461   0.296   4.294   4.322 -0.1202 -0.4503 -0.5264
  414EMC     H5 5462   0.438   4.384   4.371  3.5267 -1.2833  0.7113
  414EMC     H6 5463   0.436   4.274   0.088  1.4403  0.7627 -1.7181
  414EMC     H7 5464   0.286   4.196   0.058 -0.3283  0.7096  1.6881
  414EMC     H8 5465   0.306   4.376   0.065  3.3617 -0.1173  1.9221
  415EMC     C1 5466   3.895   2.780   4.018 -0.6133  1.1382 -0.1488
  415EMC     C2 5467   4.037   2.578   4.353 -0.5443  0.5815  0.7173
  415EMC     C3 5468   3.857   2.634   4.193 -0.4720 -0.0127  1.2322
  415EMC     O1 5469   3.947   2.691   4.119 -0.6898  0.2985  0.0989
  415EMC     O2 5470   3.918   2.544   4.273  0.3893  0.3836  0.2938
  415EMC     O3 5471   3.733   2.641   4.175 -0.1203  0.1157  0.9236
  415EMC     H1 5472   3.979   2.843   3.987  1.7436 -2.1100 -0.8670
  415EMC     H2 5473   3.813   2.843   4.052 -0.6777 -0.3478  2.6559
  415EMC     H3 5474   3.845   2.722   3.940 -0.0179 -0.6026  0.7250
  415EMC     C4 5475   4.095   2.451   4.407 -0.0540  0.4129 -0.4572
  415EMC     H4 5476   4.022   2.652   4.431 -1.3082 -1.8089  3.0041
  415EMC     H5 5477   4.109   2.618   4.282 -0.7561  0.7796  0.6123
  415EMC     H6 5478   4.184   2.466   4.467  0.3675 -0.9980 -0.6829
  415EMC     H7 5479   4.114   2.375   4.331  1.8162  0.9661 -0.5827
  415EMC     H8 5480   4.018   2.404   4.469  0.0265 -1.4222 -1.6565
  416EMC     C1 5481   1.189   4.015   3.861  0.8236 -0.2270 -0.8441
  416EMC     C2 5482   1.519   3.818   4.016 -0.4853  0.6949 -0.0867
  416EMC     C3 5483   1.288   3.816   3.959  0.3579  0.3636  0.6778
  416EMC     O1 5484   1.275   3.899   3.854  0.5925 -0.3355  0.0912
  416EMC     O2 5485   1.414   3.817   3.920  0.0194  0.1486 -0.4314
  416EMC     O3 5486   1.250   3.840   4.071  0.3138  0.0136 -0.3703
  416EMC     H1 5487   1.218   4.088   3.936 -1.1354 -0.6797  0.4335
  416EMC     H2 5488   1.093   3.975   3.895 -0.2275  1.1722 -2.0202
  416EMC     H3 5489   1.167   4.056   3.762  2.1814 -1.8949 -1.8851
  416EMC     C4 5490   1.633   3.729   3.972 -0.1402 -1.5264 -0.1344
  416EMC     H4 5491   1.486   3.786   4.115 -0.1659 -2.5394 -0.8927
  416EMC     H5 5492   1.566   3.916   4.013 -0.4371  0.6522 -1.4488
  416EMC     H6 5493   1.716   3.760   4.035 -1.0969  1.0936 -0.0500
  416EMC     H7 5494   1.674   3.758   3.875 -0.9188  0.7879  0.1785
  416EMC     H8 5495   1.616   3.621   3.978  0.4634 -1.5618  1.2349
  417EMC     C1 5496   3.869   2.935   3.462  0.2388 -0.0268  0.0306
  417EMC     C2 5497   4.089   3.317   3.420 -0.5499  0.0976 -1.1064
  417EMC     C3 5498   3.906   3.168   3.458  0.4514 -1.1625 -0.0980
  417EMC     O1 5499   3.932   3.050   3.511 -0.1910 -0.3901 -0.3316
  417EMC     O2 5500   4.011   3.232   3.500 -0.5475 -1.5049 -0.3875
  417EMC     O3 5501   3.850   3.190   3.351  0.4240  0.1002 -0.1760
  417EMC     H1 5502   3.861   2.934   3.353 -1.2639  2.6445  0.0452
  417EMC     H2 5503   3.768   2.934   3.505 -0.9303  2.8180 -2.3016
  417EMC     H3 5504   3.901   2.833   3.484  0.5898 -0.2992 -1.5885
  417EMC     C4 5505   4.220   3.353   3.499  0.7236 -0.3237 -0.0785
  417EMC     H4 5506   4.028   3.404   3.397 -0.1304  1.7460  3.0644
  417EMC     H5 5507   4.113   3.262   3.329  0.2181 -1.8424  0.2122
  417EMC     H6 5508   4.272   3.268   3.542 -1.0593 -1.1044  0.6462
  417EMC     H7 5509   4.180   3.410   3.583 -3.2816 -0.0861 -1.8883
  417EMC     H8 5510   4.292   3.411   3.442 -0.2152  0.1667 -0.7958
  418EMC     C1 5511   1.557   3.476   1.406  0.0399 -0.8026  0.2404
  418EMC     C2 5512   1.910   3.506   1.219  0.6026 -0.0649  0.1819
  418EMC     C3 5513   1.675   3.501   1.213 -0.0774 -0.0788  0.7738
  418EMC     O1 5514   1.619   3.558   1.314 -0.1201 -0.0699 -0.4861
  418EMC     O2 5515   1.785   3.572   1.244  0.3975 -0.3756  0.3600
  418EMC     O3 5516   1.655   3.384   1.170  0.4513  0.1171 -0.2066
  418EMC     H1 5517   1.595   3.374   1.415  3.7447  0.1345 -2.3068
  418EMC     H2 5518   1.449   3.472   1.403  0.0690 -1.1397 -0.7242
  418EMC     H3 5519   1.589   3.516   1.503  1.3874  1.9233 -1.1754
  418EMC     C4 5520   1.965   3.425   1.338 -0.0613  0.2632  0.1263
  418EMC     H4 5521   1.972   3.592   1.195 -1.4557  1.6770  0.8247
  418EMC     H5 5522   1.901   3.437   1.135 -1.5359  0.6378 -0.2226
  418EMC     H6 5523   2.068   3.402   1.311  0.0786 -1.4009  1.8145
  418EMC     H7 5524   1.901   3.336   1.340  0.2437  0.0455  0.9671
  418EMC     H8 5525   1.957   3.477   1.434  1.0095 -1.7824  1.4200
  419EMC     C1 5526   0.980   2.285   3.838 -0.0956 -0.6062  0.2977
  419EMC     C2 5527   1.065   1.829   3.885  0.0721  0.4131  0.2320
  419EMC     C3 5528   1.011   2.057   3.894  0.1364 -0.1230  0.1801
  419EMC     O1 5529   1.048   2.164   3.816 -0.1323  0.1791 -0.1769
  419EMC     O2 5530   1.105   1.961   3.877 -0.3123  1.0037 -0.2444
  419EMC     O3 5531   0.896   2.041   3.931  0.4315 -0.1453  0.0548
  419EMC     H1 5532   0.959   2.310   3.942  0.7384  1.2348  0.0530
  419EMC     H2 5533   0.889   2.297   3.780 -0.6233  0.8321  1.3632
  419EMC     H3 5534   1.050   2.362   3.807  0.6655 -0.3925  2.3431
  419EMC     C4 5535   1.191   1.739   3.870  0.1589  0.2473 -0.2123
  419EMC     H4 5536   0.985   1.808   3.814  0.6137  1.1323 -0.6160
  419EMC     H5 5537   1.029   1.810   3.987 -0.0103 -1.4897 -0.1134
  419EMC     H6 5538   1.182   1.639   3.912  0.4339 -0.0550 -0.8688
  419EMC     H7 5539   1.283   1.778   3.914 -0.1847  2.1455 -1.0685
  419EMC     H8 5540   1.209   1.719   3.764 -0.8120 -1.5693 -0.0835
  420EMC     C1 5541   0.530   3.665   3.518  0.9455  0.5811  0.0907
  420EMC     C2 5542   0.102   3.657   3.415  1.1101  0.0948  0.7024
  420EMC     C3 5543   0.289   3.688   3.540 -0.6175 -0.2306  0.9383
  420EMC     O1 5544   0.396   3.605   3.525 -0.5349  0.1645  0.6083
  420EMC     O2 5545   0.210   3.603   3.477  0.2384  0.3487 -0.2003
  420EMC     O3 5546   0.297   3.808   3.506  0.3379  0.0411 -0.4502
  420EMC     H1 5547   0.557   3.718   3.610  0.7417 -1.0233  1.1083
  420EMC     H2 5548   0.545   3.725   3.428  1.1354 -0.3348 -0.4965
  420EMC     H3 5549   0.599   3.584   3.493 -0.2126 -0.9437  1.6108
  420EMC     C4 5550   0.011   3.543   3.370 -0.0680 -0.3026  0.4324
  420EMC     H4 5551   0.118   3.705   3.318 -1.4426  0.0472  0.1684
  420EMC     H5 5552   0.039   3.719   3.478 -2.2432 -1.2238 -1.0648
  420EMC     H6 5553   0.052   3.494   3.282 -1.2109  3.8720 -2.7920
  420EMC     H7 5554   4.424   3.584   3.341 -1.5096 -2.9555  1.2431
  420EMC     H8 5555   4.508   3.480   3.457  0.2285  2.7962  2.9169
  421EMC     C1 5556   0.675   1.358   3.374 -0.2553 -0.0397  0.4411
  421EMC     C2 5557   0.489   1.295   3.719 -0.0972  0.3756  0.2988
  421EMC     C3 5558   0.699   1.341   3.600 -0.1974 -0.5372 -0.6435
  421EMC     O1 5559   0.663   1.417   3.501 -0.6069  0.2340 -0.0140
  421EMC     O2 5560   0.571   1.284   3.601  0.1825  0.0352 -0.8525
  421EMC     O3 5561   0.755   1.396   3.691 -0.2229 -0.3344  0.2179
  421EMC     H1 5562   0.767   1.408   3.344 -0.0796 -0.1325  0.8211
  421EMC     H2 5563   0.593   1.390   3.310  1.2565  1.7927 -0.6965
  421EMC     H3 5564   0.680   1.249   3.380 -0.6855 -0.0981 -0.1897
  421EMC     C4 5565   0.340   1.310   3.684  0.0258  0.4245  0.2504
  421EMC     H4 5566   0.515   1.388   3.770  0.2476  1.2493 -1.4115
  421EMC     H5 5567   0.507   1.204   3.775  1.5116 -0.1395 -0.9959
  421EMC     H6 5568   0.275   1.340   3.766  0.0933 -1.7431  1.1631
  421EMC     H7 5569   0.292   1.232   3.624  0.5709  2.5937 -3.3532
  421EMC     H8 5570   0.337   1.397   3.617 -2.0455 -0.9125 -1.5429
  422EMC     C1 5571   0.320   3.533   2.328  0.2805  0.3066  0.7066
  422EMC     C2 5572   0.140   3.597   1.975 -0.9789 -0.3192 -0.0785
  422EMC     C3 5573   0.115   3.555   2.213  0.5007 -0.1561  0.3320
  422EMC     O1 5574   0.225   3.485   2.232 -0.0617  0.2490 -0.1099
  422EMC     O2 5575   0.131   3.510   2.094  1.0793 -0.0075  0.0419
  422EMC     O3 5576   0.101   3.677   2.241  0.3112  0.6328  0.3551
  422EMC     H1 5577   0.309   3.468   2.414 -0.6900 -0.2229  0.2065
  422EMC     H2 5578   0.298   3.635   2.361  0.8478  0.0598  1.8885
  422EMC     H3 5579   0.423   3.533   2.292 -0.7665 -2.2626 -2.9301
  422EMC     C4 5580   0.180   3.502   1.863  0.2487  0.0574  0.6139
  422EMC     H4 5581   0.211   3.679   1.988 -3.2336  1.5993  1.0101
  422EMC     H5 5582   0.051   3.657   1.956 -1.9791 -2.0428 -1.1214
  422EMC     H6 5583   0.134   3.403   1.866 -0.0719  0.1315 -0.9416
  422EMC     H7 5584   0.286   3.491   1.841  0.5145  0.9537  1.3702
  422EMC     H8 5585   0.137   3.553   1.777 -0.9908  0.1407  1.2614
  423EMC     C1 5586   4.128   3.636   2.281  0.0567 -0.4259 -0.2266
  423EMC     C2 5587   4.282   3.401   1.962 -0.8199  0.1268 -0.5966
  423EMC     C3 5588   4.197   3.611   2.060  0.2629  0.3901  0.0545
  423EMC     O1 5589   4.104   3.590   2.148 -0.0954 -0.4635 -0.1710
  423EMC     O2 5590   4.172   3.492   1.998 -0.6308 -0.3453  0.5455
  423EMC     O3 5591   4.313   3.646   2.086 -0.4024  0.3271  0.2791
  423EMC     H1 5592   4.222   3.601   2.323 -1.0485 -2.2611  0.8821
  423EMC     H2 5593   4.047   3.588   2.336  0.3361 -1.2009 -0.4701
  423EMC     H3 5594   4.110   3.743   2.284 -0.5880 -0.4068 -2.5803
  423EMC     C4 5595   4.236   3.342   1.827 -0.5111 -0.1064  0.0018
  423EMC     H4 5596   4.282   3.327   2.042 -2.9668  0.7388  0.0442
  423EMC     H5 5597   4.377   3.454   1.962  0.4437 -1.8922 -2.8567
  423EMC     H6 5598   4.313   3.274   1.791 -1.6445 -0.1464 -2.5275
  423EMC     H7 5599   4.217   3.415   1.748 -2.8247  1.1647  1.6070
  423EMC     H8 5600   4.161   3.264   1.840  0.4603 -0.9805  0.5224
  424EMC     C1 5601   0.147   1.348   1.830 -0.0923 -0.5679 -0.2791
  424EMC     C2 5602   0.017   0.989   1.686  0.0255 -0.4308 -0.4967
  424EMC     C3 5603   4.506   1.166   1.845  0.0186 -0.3778  0.1462
  424EMC     O1 5604   0.037   1.280   1.784 -0.4451  0.4768  0.0291
  424EMC     O2 5605   4.493   1.123   1.713  0.2170  0.2739 -0.2135
  424EMC     O3 5606   0.067   1.110   1.934  0.8839  0.7166  0.0256
  424EMC     H1 5607   0.120   1.415   1.912  2.1175  0.9837 -0.7172
  424EMC     H2 5608   0.204   1.396   1.750 -1.1234  1.9791  0.3998
  424EMC     H3 5609   0.217   1.288   1.887  0.3602 -1.6973 -1.9710
  424EMC     C4 5610   4.489   0.949   1.551  0.5378 -0.3737 -0.0432
  424EMC     H4 5611   4.464   0.933   1.756  0.3564 -0.3867 -0.1608
  424EMC     H5 5612   0.123   0.985   1.708  0.0627  2.2765  0.1680
  424EMC     H6 5613   0.032   0.853   1.548  0.3246 -0.6039  2.1336
  424EMC     H7 5614   0.019   1.016   1.475  0.5203  0.0412  0.3099
  424EMC     H8 5615   4.388   0.939   1.511  0.8199 -2.3166 -0.3957
  425EMC     C1 5616   3.185   2.192   1.093 -0.5652 -0.3048 -0.2487
  425EMC     C2 5617   2.860   2.193   0.851  0.1178  0.6113  0.0302
  425EMC     C3 5618   2.977   2.118   1.040  0.0347 -0.0510 -0.6832
  425EMC     O1 5619   3.103   2.091   1.033 -0.2770 -0.6163 -0.2498
  425EMC     O2 5620   2.961   2.117   0.912 -0.2388  0.3935 -0.3409
  425EMC     O3 5621   2.920   2.198   1.116 -0.2330 -0.0220 -0.5446
  425EMC     H1 5622   3.280   2.138   1.098 -1.2329 -1.3981  2.9206
  425EMC     H2 5623   3.156   2.228   1.191 -1.4021  1.2682 -1.0427
  425EMC     H3 5624   3.206   2.277   1.028 -0.6060  1.3513  1.8359
  425EMC     C4 5625   2.880   2.156   0.703  0.1889  0.1786 -0.2169
  425EMC     H4 5626   2.867   2.296   0.885 -1.2520  0.3897  1.1080
  425EMC     H5 5627   2.761   2.156   0.880 -0.3600 -0.2811 -2.4187
  425EMC     H6 5628   2.984   2.177   0.677  0.3632  0.9212  1.0075
  425EMC     H7 5629   2.822   2.225   0.642 -2.0086  3.1756  4.6902
  425EMC     H8 5630   2.843   2.063   0.661  2.5599 -0.2850 -1.4436
  426EMC     C1 5631   0.622   2.903   2.412  0.1865  0.7093  0.1974
  426EMC     C2 5632   0.347   2.818   2.714  0.0891  0.8544  0.5895
  426EMC     C3 5633   0.534   2.952   2.633 -0.3859  0.3974  0.3504
  426EMC     O1 5634   0.629   2.913   2.556  0.1282 -0.5054 -0.5000
  426EMC     O2 5635   0.425   2.878   2.607  0.3952 -0.2284  0.6045
  426EMC     O3 5636   0.556   3.006   2.742  0.1199  0.2801  0.0871
  426EMC     H1 5637   0.629   2.994   2.353 -0.0045 -0.1093 -1.1339
  426EMC     H2 5638   0.544   2.841   2.368 -0.3473  2.0724 -0.8627
  426EMC     H3 5639   0.714   2.852   2.382  0.1430  0.2540  0.8148
  426EMC     C4 5640   0.351   2.666   2.687 -0.2474 -0.1260  0.9266
  426EMC     H4 5641   0.246   2.859   2.712  0.0767  0.8355 -0.9702
  426EMC     H5 5642   0.393   2.846   2.808  0.6282  0.4969  0.4357
  426EMC     H6 5643   0.452   2.627   2.704 -0.1250  0.0403  0.5883
  426EMC     H7 5644   0.337   2.656   2.579  1.2042 -4.0323  0.9552
  426EMC     H8 5645   0.279   2.612   2.747 -1.4390 -0.5482 -0.8178
  427EMC     C1 5646   2.504   2.799   0.380  0.1516 -0.0739  0.0175
  427EMC     C2 5647   2.123   2.755   0.329  0.7789  0.2428 -0.5245
  427EMC     C3 5648   2.327   2.642   0.332 -0.6377  0.4485 -0.5247
  427EMC     O1 5649   2.417   2.735   0.286 -0.3085 -0.8840 -0.0068
  427EMC     O2 5650   2.244   2.715   0.267  0.0199  0.4038  0.0018
  427EMC     O3 5651   2.320   2.598   0.446 -0.3030 -0.0951 -0.0352
  427EMC     H1 5652   2.607   2.797   0.345  0.2226  0.9963  0.1182
  427EMC     H2 5653   2.532   2.753   0.475  1.2784 -1.4542 -0.9537
  427EMC     H3 5654   2.464   2.900   0.395 -0.3378 -0.5878  2.6556
  427EMC     C4 5655   2.001   2.760   0.241 -0.3418  0.1448  0.7070
  427EMC     H4 5656   2.135   2.854   0.373  0.7475 -0.1150  0.3225
  427EMC     H5 5657   2.105   2.699   0.421  2.2532  2.0299  0.9289
  427EMC     H6 5658   2.027   2.822   0.155 -2.3178 -0.4515 -0.4108
  427EMC     H7 5659   1.912   2.800   0.290 -2.1359 -1.2888 -1.1607
  427EMC     H8 5660   1.973   2.661   0.202 -0.3335 -0.2856  1.7703
  428EMC     C1 5661   3.729   2.535   1.295  0.0224  0.2613  0.1428
  428EMC     C2 5662   3.715   2.766   1.647  0.0252  0.2482 -0.0383
  428EMC     C3 5663   3.838   2.689   1.454 -0.3619 -0.0603  0.3015
  428EMC     O1 5664   3.821   2.562   1.402 -1.0638  0.2518 -0.8166
  428EMC     O2 5665   3.783   2.661   1.573  0.1742 -0.1546  0.3876
  428EMC     O3 5666   3.815   2.792   1.395  0.0677 -0.2105 -0.2172
  428EMC     H1 5667   3.772   2.536   1.195 -0.6289 -0.3770 -0.1564
  428EMC     H2 5668   3.646   2.605   1.299 -1.2426 -1.2523  1.8579
  428EMC     H3 5669   3.680   2.440   1.317  1.8646 -0.3941  1.7905
  428EMC     C4 5670   3.659   2.696   1.767 -0.9256  0.3986 -0.7765
  428EMC     H4 5671   3.638   2.811   1.584 -0.0176  1.1192  0.6096
  428EMC     H5 5672   3.783   2.833   1.700 -1.6769 -0.2923  3.0938
  428EMC     H6 5673   3.591   2.619   1.729 -0.8398 -0.2433  0.3254
  428EMC     H7 5674   3.595   2.761   1.826 -0.9700  2.3176 -2.8119
  428EMC     H8 5675   3.737   2.659   1.834  0.1747  1.2752 -1.5409
  429EMC     C1 5676   3.516   3.145   0.746 -0.3634 -0.4193 -0.3590
  429EMC     C2 5677   3.445   3.397   1.040 -0.4263 -0.2064  0.5256
  429EMC     C3 5678   3.345   3.226   0.895 -0.6021  0.1301 -0.8087
  429EMC     O1 5679   3.427   3.247   0.790 -0.3896  0.1791  0.1740
  429EMC     O2 5680   3.410   3.349   0.916  0.1617 -0.1536  0.1916
  429EMC     O3 5681   3.350   3.131   0.976  0.0101 -0.0694  0.2364
  429EMC     H1 5682   3.477   3.057   0.695 -0.8620 -0.4866  0.1243
  429EMC     H2 5683   3.575   3.101   0.827  1.2634 -0.8800 -1.7366
  429EMC     H3 5684   3.592   3.195   0.686 -2.6620  1.7521 -1.6439
  429EMC     C4 5685   3.335   3.467   1.119 -0.3411 -0.1236  0.6808
  429EMC     H4 5686   3.522   3.473   1.032 -1.6843  1.0833  0.2594
  429EMC     H5 5687   3.489   3.314   1.096  0.9199  0.0290 -0.1371
  429EMC     H6 5688   3.309   3.562   1.072 -0.7932  0.0615  1.2880
  429EMC     H7 5689   3.381   3.489   1.215  0.0464  1.7204  0.0997
  429EMC     H8 5690   3.244   3.413   1.145  1.1716 -2.4609  1.4180
  430EMC     C1 5691   1.007   3.652   3.897  0.4661  0.9738  0.6514
  430EMC     C2 5692   1.106   3.394   3.612  0.5149 -0.5922 -0.3756
  430EMC     C3 5693   1.186   3.564   3.757  0.3747 -0.9388 -0.1459
  430EMC     O1 5694   1.087   3.661   3.776 -0.2032  0.2672  0.8779
  430EMC     O2 5695   1.132   3.535   3.640  0.2658  0.0876 -0.0202
  430EMC     O3 5696   1.197   3.475   3.847 -0.1071 -0.2613  0.1455
  430EMC     H1 5697   0.945   3.742   3.894  0.7862  1.1807  0.1361
  430EMC     H2 5698   1.074   3.652   3.983  2.4284 -1.4815 -0.7447
  430EMC     H3 5699   0.940   3.566   3.898  2.6837 -0.8368  1.6724
  430EMC     C4 5700   0.972   3.352   3.673 -0.5018 -0.5397  0.7234
  430EMC     H4 5701   1.187   3.332   3.650  1.3528  0.9558  0.4672
  430EMC     H5 5702   1.096   3.388   3.504 -0.0322 -0.6234 -0.3263
  430EMC     H6 5703   0.945   3.251   3.642 -1.8341 -0.0661  0.2884
  430EMC     H7 5704   0.893   3.413   3.630  0.1071 -0.8932 -0.9905
  430EMC     H8 5705   0.968   3.357   3.781 -0.1465  0.1838  0.7047
  431EMC     C1 5706   2.923   0.957   2.882 -0.2212  0.1366 -0.2585
  431EMC     C2 5707   2.588   1.072   2.655  0.4534  0.5314  0.1835
  431EMC     C3 5708   2.724   1.055   2.837 -0.4425  0.0860  0.1956
  431EMC     O1 5709   2.791   0.943   2.849  0.5325  0.4486  0.7269
  431EMC     O2 5710   2.625   1.006   2.770  0.1892  0.3048 -0.0769
  431EMC     O3 5711   2.772   1.166   2.832 -0.0960  0.1557  0.4161
  431EMC     H1 5712   2.961   0.860   2.912 -0.0319  0.9149  2.2544
  431EMC     H2 5713   2.938   1.020   2.970 -0.3093  2.2762 -1.6972
  431EMC     H3 5714   2.979   0.996   2.797  1.9048  1.9841  1.8539
  431EMC     C4 5715   2.440   1.055   2.620  0.3314 -0.0909 -0.5800
  431EMC     H4 5716   2.644   1.032   2.570 -0.5625  0.8407 -0.6487
  431EMC     H5 5717   2.610   1.178   2.656  2.3180  0.1925  2.1404
  431EMC     H6 5718   2.366   1.067   2.699 -0.5305 -2.4410 -0.9349
  431EMC     H7 5719   2.440   0.954   2.579 -0.5087  1.3731 -4.5929
  431EMC     H8 5720   2.404   1.113   2.535  0.7077 -0.3686 -0.9313
  432EMC     C1 5721   2.281   1.537   0.252 -0.3697  0.0987 -1.0089
  432EMC     C2 5722   2.622   1.705   0.366  0.1218  0.2116  0.2599
  432EMC     C3 5723   2.421   1.589   0.447 -0.2104  0.5326  0.3922
  432EMC     O1 5724   2.382   1.509   0.343 -0.3998  0.0964 -0.5048
  432EMC     O2 5725   2.551   1.576   0.399 -0.1169  0.0906  0.5922
  432EMC     O3 5726   2.359   1.691   0.466  0.6762 -0.1730 -0.2954
  432EMC     H1 5727   2.298   1.633   0.204 -0.2657 -0.0531 -1.2807
  432EMC     H2 5728   2.185   1.531   0.304 -0.4773 -0.2678 -1.2440
  432EMC     H3 5729   2.276   1.467   0.168 -0.7024 -1.2650  0.1058
  432EMC     C4 5730   2.774   1.685   0.339  0.7048 -0.9146 -0.1552
  432EMC     H4 5731   2.619   1.781   0.444  3.5524 -0.3498  1.0997
  432EMC     H5 5732   2.574   1.752   0.280  0.2606 -0.6035 -0.2740
  432EMC     H6 5733   2.841   1.663   0.422  2.0645 -1.0018 -1.2356
  432EMC     H7 5734   2.818   1.773   0.292  0.6939 -0.0970  1.2943
  432EMC     H8 5735   2.784   1.595   0.278  0.3228  0.4939 -2.3872
  433EMC     C1 5736   3.452   3.606   1.741 -0.5669  0.5696 -0.2134
  433EMC     C2 5737   3.603   3.418   1.403 -0.3809  0.2353 -0.3975
  433EMC     C3 5738   3.478   3.597   1.499  0.0354 -0.0970 -0.0191
  433EMC     O1 5739   3.434   3.534   1.615 -0.8678 -0.0923  0.5820
  433EMC     O2 5740   3.484   3.466   1.466 -0.4993  0.2965  0.8351
  433EMC     O3 5741   3.570   3.681   1.502  0.2915  0.3240  0.0447
  433EMC     H1 5742   3.553   3.625   1.777 -0.2042 -0.8644 -0.4065
  433EMC     H2 5743   3.398   3.556   1.822 -1.1318  0.7329 -0.4854
  433EMC     H3 5744   3.393   3.697   1.733  1.0647  1.7339  0.3247
  433EMC     C4 5745   3.594   3.270   1.389  0.8510  0.6660 -0.7231
  433EMC     H4 5746   3.692   3.437   1.463 -0.4573  1.8000 -0.7350
  433EMC     H5 5747   3.602   3.482   1.314 -1.0789  0.4049 -0.2700
  433EMC     H6 5748   3.582   3.224   1.487  1.9233  3.5586  0.8979
  433EMC     H7 5749   3.691   3.232   1.356  1.7488  1.3803  0.9483
  433EMC     H8 5750   3.521   3.243   1.313 -2.6810  1.9361  1.9322
  434EMC     C1 5751   1.006   2.216   3.101  0.1570 -0.2541 -0.4801
  434EMC     C2 5752   0.998   2.606   3.002  0.1656  0.1799  0.4085
  434EMC     C3 5753   1.115   2.409   3.022  0.5186 -0.2033  0.1142
  434EMC     O1 5754   1.002   2.351   3.053 -0.1866 -0.2286 -0.5147
  434EMC     O2 5755   1.082   2.519   3.076 -0.3733  0.0842  0.0893
  434EMC     O3 5756   1.226   2.364   3.044 -0.3948  0.1150  0.3522
  434EMC     H1 5757   1.104   2.200   3.145  0.2218  1.0882 -0.0863
  434EMC     H2 5758   1.000   2.154   3.012 -0.4054  0.6631 -1.1033
  434EMC     H3 5759   0.936   2.206   3.185  3.8855 -0.0543  2.9938
  434EMC     C4 5760   0.886   2.655   3.095 -0.2446 -0.2732 -0.5277
  434EMC     H4 5761   0.953   2.566   2.911  0.5476  1.5514 -0.4235
  434EMC     H5 5762   1.075   2.672   2.963  1.5602 -1.4448  0.2860
  434EMC     H6 5763   0.801   2.588   3.091  0.0838 -0.8760  1.5625
  434EMC     H7 5764   0.849   2.753   3.064 -1.5343  0.0848  1.9353
  434EMC     H8 5765   0.908   2.663   3.201 -1.6993 -1.4825 -0.1074
  435EMC     C1 5766   3.172   2.584   3.735  0.3715  0.8656  0.0846
  435EMC     C2 5767   3.089   2.698   4.111  0.3923 -0.9607 -0.1696
  435EMC     C3 5768   3.157   2.524   3.974 -0.3310  0.5540 -0.2701
  435EMC     O1 5769   3.095   2.545   3.848 -0.1828 -0.9008 -0.1616
  435EMC     O2 5770   3.062   2.599   4.022 -0.5787  0.3781  0.1700
  435EMC     O3 5771   3.281   2.544   3.993  0.9148  0.0156  0.0537
  435EMC     H1 5772   3.249   2.508   3.726  0.3217  0.9701 -1.4482
  435EMC     H2 5773   3.238   2.669   3.750  2.7259 -0.4784 -1.9237
  435EMC     H3 5774   3.113   2.595   3.644  0.2170 -1.7240 -0.1874
  435EMC     C4 5775   3.003   2.676   4.234 -0.5530  0.4545 -0.6653
  435EMC     H4 5776   3.065   2.796   4.067 -2.8185 -1.3773  0.3703
  435EMC     H5 5777   3.193   2.696   4.143  0.5107  0.4076 -0.3762
  435EMC     H6 5778   2.998   2.769   4.291 -1.5462  0.4344 -0.7053
  435EMC     H7 5779   3.056   2.597   4.286  1.3324  0.4796 -2.4512
  435EMC     H8 5780   2.906   2.637   4.203 -0.9238 -1.1796  2.1925
  436EMC     C1 5781   0.800   2.165   1.756 -0.4833  0.1344 -0.2279
  436EMC     C2 5782   1.048   1.972   2.040  0.7680  0.3233 -0.3104
  436EMC     C3 5783   1.015   2.108   1.857 -0.0374  0.3771  0.5066
  436EMC     O1 5784   0.880   2.140   1.874 -0.3514 -0.6242  0.6445
  436EMC     O2 5785   1.012   2.088   1.982  0.4592 -0.3699 -0.0067
  436EMC     O3 5786   1.044   2.018   1.777  0.0266 -0.4414  0.2124
  436EMC     H1 5787   0.870   2.193   1.677  1.4887  0.0448  1.3941
  436EMC     H2 5788   0.743   2.257   1.769 -2.3198 -0.8785 -0.8320
  436EMC     H3 5789   0.728   2.088   1.727 -1.0244  0.5239  0.0831
  436EMC     C4 5790   1.046   1.977   2.191 -0.3040 -0.5498  0.5206
  436EMC     H4 5791   1.149   1.947   2.008  0.6301  0.8245 -1.1725
  436EMC     H5 5792   0.985   1.889   2.010  0.4404  0.0949  0.9557
  436EMC     H6 5793   0.952   2.016   2.230 -0.5813  0.7546 -1.3270
  436EMC     H7 5794   1.141   2.021   2.221 -1.3431  2.0558  0.2681
  436EMC     H8 5795   1.046   1.871   2.218 -0.4509 -1.3086 -2.1630
  437EMC     C1 5796   0.115   1.270   0.493  0.3266 -0.1651 -0.3790
  437EMC     C2 5797   4.471   1.215   0.859 -0.2222 -0.6267 -0.3295
  437EMC     C3 5798   0.144   1.268   0.728  1.0867  0.0276 -0.1749
  437EMC     O1 5799   0.105   1.338   0.620  0.0021 -0.2429  0.2078
  437EMC     O2 5800   0.033   1.314   0.789  0.4309  0.0894  0.3520
  437EMC     O3 5801   0.194   1.157   0.732  0.2648  0.0485  0.3072
  437EMC     H1 5802   0.187   1.188   0.503  0.9632  0.5949  1.9315
  437EMC     H2 5803   0.139   1.334   0.409  0.4104 -0.3493 -0.4967
  437EMC     H3 5804   0.019   1.223   0.471 -0.8640  1.7971  0.4236
  437EMC     C4 5805   4.344   1.279   0.916  0.1596 -0.6074  0.7836
  437EMC     H4 5806   0.023   1.153   0.923 -1.3934 -2.2242 -0.6938
  437EMC     H5 5807   4.431   1.149   0.782  1.2405 -2.9581  0.8219
  437EMC     H6 5808   4.275   1.302   0.835 -2.5501  0.1651  3.1467
  437EMC     H7 5809   4.367   1.370   0.972 -0.2688 -0.7308  1.1626
  437EMC     H8 5810   4.282   1.212   0.977 -1.7985  1.0792  0.7541
  438EMC     C1 5811   2.363   1.800   1.253  0.6904  0.1578  1.0290
  438EMC     C2 5812   2.255   2.007   1.623 -0.0114  0.7103  0.8417
  438EMC     C3 5813   2.266   1.814   1.475  0.1412 -0.1413  0.3903
  438EMC     O1 5814   2.378   1.810   1.394 -0.1099  0.2860 -0.2657
  438EMC     O2 5815   2.334   1.921   1.543  0.0781  0.2591  0.5613
  438EMC     O3 5816   2.155   1.813   1.421 -0.0097  0.0005  0.1059
  438EMC     H1 5817   2.338   1.698   1.224  0.7056 -0.4304  2.9933
  438EMC     H2 5818   2.455   1.830   1.202  0.7998  0.0143  1.1412
  438EMC     H3 5819   2.288   1.871   1.219 -2.0474 -2.8553  0.3350
  438EMC     C4 5820   2.343   2.112   1.688  0.1077 -0.5044 -0.2041
  438EMC     H4 5821   2.206   1.944   1.698  0.0201 -0.2422  0.0735
  438EMC     H5 5822   2.181   2.057   1.561 -1.3160 -1.4594  0.5390
  438EMC     H6 5823   2.418   2.071   1.756 -0.9621 -2.3689 -0.0850
  438EMC     H7 5824   2.283   2.181   1.747  0.8348 -0.7952  0.9109
  438EMC     H8 5825   2.385   2.179   1.614  0.6645 -0.4576  0.1452
  439EMC     C1 5826   1.666   0.466   1.191 -0.2062  0.2525 -0.1882
  439EMC     C2 5827   1.894   0.541   1.519 -0.3794 -0.2350  0.5128
  439EMC     C3 5828   1.707   0.427   1.420 -0.6231  0.3050 -0.1145
  439EMC     O1 5829   1.645   0.500   1.329  0.3467 -0.0743  0.3838
  439EMC     O2 5830   1.749   0.523   1.511 -0.1885 -0.1398 -0.0089
  439EMC     O3 5831   1.775   0.329   1.389 -0.5036 -0.2864  0.4934
  439EMC     H1 5832   1.605   0.380   1.163 -0.0868  0.9950 -2.9952
  439EMC     H2 5833   1.771   0.441   1.171 -0.4548 -1.4541  0.4819
  439EMC     H3 5834   1.650   0.541   1.114 -0.6570 -1.3739 -1.7459
  439EMC     C4 5835   1.929   0.551   1.667  1.0114 -0.0020 -0.0511
  439EMC     H4 5836   1.928   0.623   1.456  0.1942 -0.2121  0.8558
  439EMC     H5 5837   1.943   0.453   1.476 -1.4959 -0.0112 -1.3370
  439EMC     H6 5838   1.927   0.457   1.721 -2.2449 -0.3099 -0.5256
  439EMC     H7 5839   1.858   0.609   1.725  1.3145 -0.6173  0.9491
  439EMC     H8 5840   2.034   0.581   1.666  1.2676 -0.8550  0.6431
  440EMC     C1 5841   3.448   2.394   1.142  0.1063 -0.2459 -0.4975
  440EMC     C2 5842   3.528   2.055   1.042 -0.1952 -0.3495 -0.2456
  440EMC     C3 5843   3.613   2.223   1.180 -0.2634 -0.2792  0.0990
  440EMC     O1 5844   3.490   2.271   1.201  0.5726  0.5849 -0.1342
  440EMC     O2 5845   3.516   2.127   1.163  0.2962  0.3478 -0.2359
  440EMC     O3 5846   3.693   2.259   1.094  0.2496  0.1102  0.1932
  440EMC     H1 5847   3.512   2.472   1.183  1.1309 -2.1048  1.6518
  440EMC     H2 5848   3.354   2.426   1.185  0.5843  0.2801  0.1771
  440EMC     H3 5849   3.445   2.392   1.033 -2.1863  1.8244 -0.5553
  440EMC     C4 5850   3.458   1.923   1.059  0.0182  1.1566  0.6214
  440EMC     H4 5851   3.630   2.026   1.017 -0.6020 -0.8708 -1.3788
  440EMC     H5 5852   3.475   2.105   0.961 -1.9717 -2.2261 -0.3315
  440EMC     H6 5853   3.479   1.865   1.149 -1.7340 -0.3800  0.1056
  440EMC     H7 5854   3.478   1.850   0.980  0.4072 -1.5230  3.0228
  440EMC     H8 5855   3.350   1.918   1.048  0.1503  0.3199 -0.4540
  441EMC     C1 5856   0.246   0.345   4.294 -0.2713  0.1972  0.4033
  441EMC     C2 5857   0.330   0.042   4.112  0.8210 -0.9190  0.0907
  441EMC     C3 5858   0.152   0.112   4.249  0.3454 -0.6269  0.8458
  441EMC     O1 5859   0.144   0.253   4.233 -0.2181 -0.3612  0.2484
  441EMC     O2 5860   0.216   0.117   4.127  0.4136 -0.0722  0.8321
  441EMC     O3 5861   0.183   0.054   4.352  0.0914  0.4096 -0.3044
  441EMC     H1 5862   0.244   0.453   4.280 -0.2724  0.0834 -0.4867
  441EMC     H2 5863   0.345   0.318   4.257 -0.5694  0.6830 -0.7684
  441EMC     H3 5864   0.254   0.315   4.399 -0.3470 -1.0227  0.0805
  441EMC     C4 5865   0.384   0.057   3.967 -0.4322 -0.7483 -0.6198
  441EMC     H4 5866   0.312   4.447   4.133  1.2658 -0.6382  2.0432
  441EMC     H5 5867   0.394   0.072   4.194 -0.9480 -0.8968  1.5257
  441EMC     H6 5868   0.392   0.162   3.941 -1.1278 -0.2408  1.0531
  441EMC     H7 5869   0.327   0.000   3.894 -0.4158 -0.4088 -0.8968
  441EMC     H8 5870   0.481   0.007   3.970  0.4502  0.9009 -0.4534
  442EMC     C1 5871   4.339   1.750   3.403 -0.6729 -0.4353  0.9104
  442EMC     C2 5872   4.461   1.547   3.798 -0.9516  0.4910  0.2801
  442EMC     C3 5873   4.376   1.590   3.575 -0.0648  0.1004 -0.0842
  442EMC     O1 5874   4.423   1.659   3.475  0.5639 -0.6665 -0.0717
  442EMC     O2 5875   4.482   1.585   3.659  0.1530  0.7113  0.5742
  442EMC     O3 5876   4.258   1.582   3.608 -0.6120  0.1364  0.2856
  442EMC     H1 5877   4.255   1.782   3.465 -1.3169  0.7732 -0.5184
  442EMC     H2 5878   4.308   1.701   3.310 -0.6746  1.4055 -0.1168
  442EMC     H3 5879   4.395   1.838   3.370  1.2139 -2.3127 -1.2748
  442EMC     C4 5880   0.072   1.586   3.887  0.0878 -0.2354 -0.2454
  442EMC     H4 5881   4.459   1.438   3.805  0.2671  0.4971  1.0435
  442EMC     H5 5882   4.362   1.582   3.827 -0.5456  1.2348  0.8176
  442EMC     H6 5883   0.165   1.538   3.859 -0.1225 -0.1335 -1.1344
  442EMC     H7 5884   0.045   1.569   3.991  0.5554  0.9320  0.0842
  442EMC     H8 5885   0.074   1.695   3.875 -2.2656 -0.2317 -1.0661
  443EMC     C1 5886   3.148   3.909   1.837  0.6245  0.5145 -0.1994
  443EMC     C2 5887   3.453   3.985   2.185 -0.2019  0.1633 -0.1118
  443EMC     C3 5888   3.320   3.888   2.009  0.7432 -0.1869 -0.3650
  443EMC     O1 5889   3.217   3.950   1.954  0.4894  0.1312 -0.1498
  443EMC     O2 5890   3.327   3.948   2.129  0.9233 -0.2797 -0.3317
  443EMC     O3 5891   3.390   3.798   1.967  0.0632 -0.3314  0.8833
  443EMC     H1 5892   3.199   3.838   1.771  0.1924 -1.9635  1.9792
  443EMC     H2 5893   3.108   3.987   1.772 -2.0052 -1.0674 -0.6107
  443EMC     H3 5894   3.052   3.861   1.854 -0.2391  1.8908 -0.9789
  443EMC     C4 5895   3.452   4.077   2.305 -0.1371 -0.8143 -0.5170
  443EMC     H4 5896   3.526   4.019   2.111  0.7132 -1.1656  0.1496
  443EMC     H5 5897   3.501   3.895   2.222 -2.4795 -0.8682  0.5000
  443EMC     H6 5898   3.550   4.121   2.324 -0.3047 -1.0595  1.1101
  443EMC     H7 5899   3.434   4.018   2.395  4.0043  0.6409  1.5283
  443EMC     H8 5900   3.378   4.155   2.284 -1.7251 -2.1996 -0.2632
  444EMC     C1 5901   0.407   2.543   1.565  0.1363 -0.1750  0.5465
  444EMC     C2 5902   0.485   2.751   1.232  0.2207  0.3584 -0.3189
  444EMC     C3 5903   0.534   2.707   1.457  0.1740 -1.0108  0.4580
  444EMC     O1 5904   0.499   2.577   1.462 -0.1994 -0.3043  0.3551
  444EMC     O2 5905   0.546   2.665   1.333 -0.3511 -0.0411  0.0591
  444EMC     O3 5906   0.464   2.801   1.503 -0.3024 -0.3764 -0.1762
  444EMC     H1 5907   0.322   2.611   1.569 -1.5178 -2.0746 -0.7599
  444EMC     H2 5908   0.463   2.540   1.659  1.7343  1.7552 -0.2636
  444EMC     H3 5909   0.374   2.441   1.546  0.3529 -0.7663  3.0012
  444EMC     C4 5910   0.517   2.695   1.091  0.5546  0.2896  0.1192
  444EMC     H4 5911   0.529   2.850   1.241  0.8405  0.1483 -0.8848
  444EMC     H5 5912   0.377   2.743   1.246  0.6501 -0.6807  3.2600
  444EMC     H6 5913   0.462   2.601   1.077 -1.4554  1.4408 -0.0688
  444EMC     H7 5914   0.622   2.679   1.066  0.4809  2.1865 -1.6478
  444EMC     H8 5915   0.485   2.761   1.011  2.3266  0.1159 -0.7863
  445EMC     C1 5916   0.615   0.926   3.587  0.5740  0.3732  0.1155
  445EMC     C2 5917   0.999   1.108   3.714  0.1564  0.0427  0.1140
  445EMC     C3 5918   0.835   0.973   3.610 -0.5468 -0.3084 -0.9287
  445EMC     O1 5919   0.723   0.957   3.670  0.6007  0.1439  0.0342
  445EMC     O2 5920   0.872   1.038   3.723  0.2456 -0.3939  0.5364
  445EMC     O3 5921   0.851   1.017   3.500  0.4287  0.9698  0.5766
  445EMC     H1 5922   0.606   1.006   3.513  0.4992 -0.4441 -0.7869
  445EMC     H2 5923   0.521   0.900   3.636 -0.1969 -0.0129 -1.4914
  445EMC     H3 5924   0.641   0.833   3.537  0.5679 -0.4412  1.6000
  445EMC     C4 5925   1.066   1.099   3.853  0.1103  0.1965 -0.8473
  445EMC     H4 5926   0.954   1.204   3.687 -2.2957 -0.9623  0.3204
  445EMC     H5 5927   1.053   1.077   3.625 -1.8434  2.2542 -2.0361
  445EMC     H6 5928   1.104   0.998   3.874  0.2654  0.5157  0.5059
  445EMC     H7 5929   0.993   1.125   3.930 -0.7581 -2.3139 -0.7268
  445EMC     H8 5930   1.150   1.167   3.860  1.3739 -1.3887  0.2183
  446EMC     C1 5931   0.076   0.270   3.887  0.3759 -0.3599 -0.7847
  446EMC     C2 5932   4.333   0.392   3.627 -0.0292 -0.4730 -0.3663
  446EMC     C3 5933   0.016   0.267   3.659  0.1838 -0.2243 -0.0166
  446EMC     O1 5934   0.067   0.337   3.764  0.4267 -0.0986 -0.1737
  446EMC     O2 5935   4.471   0.390   3.639  0.0321  0.3112  0.0008
  446EMC     O3 5936   4.455   0.165   3.679 -0.1545 -0.0135 -0.1313
  446EMC     H1 5937   0.118   0.340   3.959  1.2366 -0.1732 -1.4483
  446EMC     H2 5938   0.152   0.191   3.881  1.5219  0.7117 -0.7986
  446EMC     H3 5939   4.498   0.216   3.920  0.3249 -1.6378 -2.8328
  446EMC     C4 5940   4.281   0.521   3.559  0.5800  0.4648  0.0235
  446EMC     H4 5941   4.284   0.375   3.723 -0.5234 -0.6030 -0.6370
  446EMC     H5 5942   4.302   0.314   3.558  0.3421 -0.2750 -0.7655
  446EMC     H6 5943   4.173   0.533   3.560  0.6728  1.3580  1.1781
  446EMC     H7 5944   4.304   0.524   3.452 -0.3013 -0.2502 -0.1965
  446EMC     H8 5945   4.330   0.601   3.615  1.2210  0.9338 -1.1585
  447EMC     C1 5946   1.460   0.706   0.955 -0.2675 -0.2832  0.6271
  447EMC     C2 5947   1.587   0.370   0.814 -1.0363 -0.2502  0.4979
  447EMC     C3 5948   1.571   0.607   0.755  0.1665  0.2838  0.1649
  447EMC     O1 5949   1.574   0.648   0.884  0.0573 -0.5575 -0.0964
  447EMC     O2 5950   1.637   0.503   0.818  0.1699 -0.2617 -0.0458
  447EMC     O3 5951   1.463   0.596   0.689  0.1678  0.5102 -0.5587
  447EMC     H1 5952   1.368   0.701   0.897 -0.2618  0.8220  0.5093
  447EMC     H2 5953   1.479   0.809   0.987 -2.0952  1.0716 -2.2495
  447EMC     H3 5954   1.460   0.660   1.054  4.9509  0.6010  1.3741
  447EMC     C4 5955   1.700   0.274   0.855 -0.0657 -0.5605 -0.5863
  447EMC     H4 5956   1.560   0.340   0.713  0.0713 -2.2474  0.7413
  447EMC     H5 5957   1.514   0.361   0.895 -1.3512  2.2202  0.5918
  447EMC     H6 5958   1.677   0.168   0.862 -1.6335 -0.1390  2.8770
  447EMC     H7 5959   1.754   0.311   0.942 -0.0783  2.0761 -1.6180
  447EMC     H8 5960   1.777   0.279   0.779  0.6187  0.4569  0.1405
  448EMC     C1 5961   2.026   1.427   3.865  0.3341  0.3536  0.2195
  448EMC     C2 5962   2.252   1.482   4.193  0.3951 -0.4635 -0.2455
  448EMC     C3 5963   2.049   1.392   4.100  0.1680 -1.1780 -0.5676
  448EMC     O1 5964   2.064   1.474   3.987 -0.3147  0.1109  0.1689
  448EMC     O2 5965   2.125   1.426   4.208 -0.2052 -0.8819 -0.0477
  448EMC     O3 5966   1.958   1.312   4.102  0.5400  0.4305 -0.0734
  448EMC     H1 5967   2.062   1.494   3.787 -0.1238  0.7084  0.3080
  448EMC     H2 5968   1.917   1.418   3.859  0.4556 -2.0761  0.7720
  448EMC     H3 5969   2.052   1.323   3.847 -0.8854 -0.1571  1.2443
  448EMC     C4 5970   2.325   1.488   4.324  0.2496  0.8537 -0.0180
  448EMC     H4 5971   2.223   1.583   4.161  1.9647 -0.1944 -0.9134
  448EMC     H5 5972   2.315   1.441   4.113 -0.5664 -0.2745 -1.1300
  448EMC     H6 5973   2.284   1.558   4.396  2.3800  1.8139  0.3619
  448EMC     H7 5974   2.427   1.527   4.316  1.1329 -0.9292  1.6139
  448EMC     H8 5975   2.345   1.387   4.360  1.6811  0.2228 -2.3740
  449EMC     C1 5976   0.778   3.515   1.378 -0.6136  0.5022 -1.2414
  449EMC     C2 5977   0.656   3.875   1.136  0.1309  0.4028 -0.6886
  449EMC     C3 5978   0.688   3.644   1.210 -0.4981  0.1116 -0.2456
  449EMC     O1 5979   0.745   3.641   1.328 -0.1205 -0.3301 -0.3180
  449EMC     O2 5980   0.743   3.763   1.169  0.0660  0.3695 -0.0097
  449EMC     O3 5981   0.574   3.600   1.180  0.1054  0.0325  0.1410
  449EMC     H1 5982   0.838   3.463   1.304 -0.2216 -1.9915  0.7034
  449EMC     H2 5983   0.692   3.449   1.390 -0.4284  0.4702  0.0739
  449EMC     H3 5984   0.846   3.517   1.463  1.4093 -0.3797 -2.7808
  449EMC     C4 5985   0.579   3.928   1.258 -0.4889 -0.1760  1.1187
  449EMC     H4 5986   0.589   3.834   1.061 -0.4418  2.9123 -1.6443
  449EMC     H5 5987   0.718   3.958   1.102 -1.4209  2.7478  1.8186
  449EMC     H6 5988   0.520   4.011   1.218 -0.9164 -0.4011  1.2766
  449EMC     H7 5989   0.632   3.977   1.340  1.6392 -1.0417  0.3297
  449EMC     H8 5990   0.496   3.863   1.285  3.2979 -6.0963  0.3053
  450EMC     C1 5991   1.964   3.143   2.061 -0.6174  0.2088 -0.4251
  450EMC     C2 5992   2.219   3.451   2.076  0.2705  0.0023  0.1435
  450EMC     C3 5993   2.105   3.302   1.937 -0.4960 -0.9775 -0.0207
  450EMC     O1 5994   2.093   3.207   2.038 -0.0460 -0.1878 -0.0363
  450EMC     O2 5995   2.204   3.323   2.011  0.1770 -0.5389 -1.0816
  450EMC     O3 5996   2.015   3.370   1.901  0.2987  0.6174  0.1861
  450EMC     H1 5997   1.936   3.054   2.005  0.6400  0.1922 -1.0665
  450EMC     H2 5998   1.875   3.206   2.061 -0.8511  0.0070  2.3577
  450EMC     H3 5999   1.976   3.105   2.163  0.7248 -2.1883 -1.3999
  450EMC     C4 6000   2.362   3.506   2.095  0.4095  0.1883  0.1009
  450EMC     H4 6001   2.172   3.450   2.174  2.4381  3.0512  1.3563
  450EMC     H5 6002   2.154   3.525   2.030 -1.1781 -0.0581  2.0040
  450EMC     H6 6003   2.417   3.447   2.168 -1.6251 -0.5638  1.0992
  450EMC     H7 6004   2.375   3.610   2.125  1.0427  0.0906  0.1782
  450EMC     H8 6005   2.425   3.508   2.006  1.2709  1.9655  0.7054
  451EMC     C1 6006   4.082   3.336   0.296 -0.6705 -0.1798  0.3219
  451EMC     C2 6007   4.302   3.062   0.071  0.3256 -0.0084 -0.3694
  451EMC     C3 6008   4.257   3.275   0.149 -0.4398  0.9114 -0.5049
  451EMC     O1 6009   4.217   3.289   0.279  0.8050 -0.6629 -0.7615
  451EMC     O2 6010   4.320   3.162   0.168 -0.2685  0.5091 -0.1171
  451EMC     O3 6011   4.190   3.304   0.049  0.6174 -0.1956 -0.2036
  451EMC     H1 6012   4.031   3.374   0.207 -0.7417 -1.9067 -0.4139
  451EMC     H2 6013   4.084   3.412   0.374  0.3003 -0.9763  1.0990
  451EMC     H3 6014   4.010   3.264   0.336  0.4519 -2.3473 -1.3224
  451EMC     C4 6015   4.339   2.932   0.144 -0.2762 -0.2623 -0.6611
  451EMC     H4 6016   4.360   3.076   4.490  1.4245 -1.6744  0.0185
  451EMC     H5 6017   4.198   3.055   0.039  0.4321 -3.4415 -0.4062
  451EMC     H6 6018   4.308   2.848   0.081 -1.5400  1.0599 -1.8755
  451EMC     H7 6019   4.295   2.929   0.244  0.9795 -0.7846 -0.0985
  451EMC     H8 6020   4.447   2.918   0.149 -0.3322 -0.2488  1.8057
  452EMC     C1 6021   1.637   0.161   3.678 -0.1605  0.4716  0.2493
  452EMC     C2 6022   2.002   4.500   3.771 -0.2021 -0.1691 -0.3088
  452EMC     C3 6023   1.796   0.082   3.845  0.4536  0.3947  0.1239
  452EMC     O1 6024   1.758   0.096   3.710 -0.4459 -0.2038  0.1976
  452EMC     O2 6025   1.883   4.495   3.854 -0.7554  0.1658 -0.2261
  452EMC     O3 6026   1.725   0.122   3.936  0.3407 -0.3380  0.4978
  452EMC     H1 6027   1.640   0.268   3.655 -1.2360  0.1280 -1.7336
  452EMC     H2 6028   1.568   0.133   3.757  1.6166 -1.5183  1.1731
  452EMC     H3 6029   1.590   0.119   3.589  3.3419 -2.1117 -0.5959
  452EMC     C4 6030   2.115   4.434   3.854  0.2322 -0.2530  0.4631
  452EMC     H4 6031   2.030   0.091   3.740 -0.9491 -0.5540 -2.4466
  452EMC     H5 6032   1.987   4.447   3.677 -0.3393 -2.3155  0.8522
  452EMC     H6 6033   2.140   4.473   3.953  0.2224  1.1145 -0.0458
  452EMC     H7 6034   2.207   4.444   3.795 -0.4714  0.9263 -0.4939
  452EMC     H8 6035   2.095   4.329   3.874 -2.3613  0.2486  0.8506
  453EMC     C1 6036   4.461   3.323   4.263  0.8021  0.4088  0.0390
  453EMC     C2 6037   4.485   3.623   0.059 -0.0186  0.6532  0.2808
  453EMC     C3 6038   4.413   3.533   4.363 -0.3683  0.2967 -0.0745
  453EMC     O1 6039   4.386   3.399   4.363  0.1364  0.3580 -0.1634
  453EMC     O2 6040   4.389   3.545   4.498 -0.0360  0.3505 -0.5320
  453EMC     O3 6041   4.506   3.591   4.305 -0.4211  0.6440  0.4202
  453EMC     H1 6042   4.409   3.332   4.167 -2.2405 -2.3881  1.2366
  453EMC     H2 6043   4.465   3.216   4.283  3.0295  0.4608  0.1570
  453EMC     H3 6044   0.048   3.372   4.258 -0.5951  3.3931 -0.2835
  453EMC     C4 6045   4.439   3.637   0.207  0.1879  0.2972  0.4776
  453EMC     H4 6046   4.502   3.721   0.014  1.4750  0.0706 -0.4866
  453EMC     H5 6047   0.067   3.566   0.052  0.8751  2.0324  0.3785
  453EMC     H6 6048   4.341   3.685   0.208  0.0541  0.0235  0.5550
  453EMC     H7 6049   4.503   3.703   0.265  0.7529  0.5508 -0.4371
  453EMC     H8 6050   4.437   3.535   0.245  1.9757  0.3570  0.8155
  454EMC     C1 6051   2.021   2.297   2.199 -0.0406 -0.2270 -0.4610
  454EMC     C2 6052   2.209   2.139   2.488 -0.1972 -0.5408  0.1780
  454EMC     C3 6053   1.993   2.228   2.423 -0.0279 -0.3098  0.5463
  454EMC     O1 6054   2.034   2.325   2.338  0.3350  0.5906  0.1755
  454EMC     O2 6055   2.127   2.249   2.460 -0.8061  0.3911 -0.1746
  454EMC     O3 6056   1.957   2.116   2.386 -0.5378 -0.3445  0.6987
  454EMC     H1 6057   2.081   2.380   2.161  1.0115  0.8430  3.1085
  454EMC     H2 6058   1.919   2.284   2.163 -0.7738  0.5429  1.2344
  454EMC     H3 6059   2.074   2.208   2.165 -1.3572 -1.7324  1.2374
  454EMC     C4 6060   2.182   2.105   2.635 -0.3007  0.1641  0.3201
  454EMC     H4 6061   2.312   2.167   2.465  0.0261 -0.7990  0.8560
  454EMC     H5 6062   2.184   2.059   2.418  0.4465 -0.5420 -0.0635
  454EMC     H6 6063   2.075   2.095   2.656 -0.3299  2.1925  1.4150
  454EMC     H7 6064   2.225   2.191   2.686  1.4793  2.1076 -3.9722
  454EMC     H8 6065   2.242   2.020   2.669 -1.2172 -0.5473  0.2005
  455EMC     C1 6066   0.306   2.290   4.452  0.4722  0.0869 -0.2834
  455EMC     C2 6067   0.317   2.004   0.258 -0.4654 -0.0686 -0.0011
  455EMC     C3 6068   0.395   2.098   0.048 -0.0110 -0.0886 -0.1554
  455EMC     O1 6069   0.299   2.152   4.488 -0.1203  0.7491  0.3747
  455EMC     O2 6070   0.295   2.052   0.124  0.2830 -0.3714  0.1705
  455EMC     O3 6071   0.493   2.159   0.095  0.2665  0.7504  0.5893
  455EMC     H1 6072   0.405   2.322   4.420 -0.3199  2.1621 -0.8057
  455EMC     H2 6073   0.282   2.347   0.032  0.0176  0.5811 -0.7129
  455EMC     H3 6074   0.233   2.319   4.376  0.6354  0.9110 -0.1295
  455EMC     C4 6075   0.336   1.848   0.266 -0.9494 -0.6537 -0.2771
  455EMC     H4 6076   0.225   2.027   0.312 -1.1345 -0.7601 -0.8027
  455EMC     H5 6077   0.403   2.051   0.305  1.1643 -0.7034 -2.1364
  455EMC     H6 6078   0.332   1.823   0.372  0.0601 -0.7626 -0.2540
  455EMC     H7 6079   0.428   1.814   0.219 -0.6892  1.1040 -1.1285
  455EMC     H8 6080   0.255   1.788   0.225 -2.5149 -0.6563  2.5152
  456EMC     C1 6081   3.069   3.666   2.910  0.1952  0.1258 -0.2997
  456EMC     C2 6082   3.086   3.714   2.573  0.1013 -0.5626  0.3002
  456EMC     C3 6083   2.908   3.712   2.744  0.5703 -0.4439  0.2651
  456EMC     O1 6084   2.983   3.760   2.845 -0.1979 -0.3196 -0.2255
  456EMC     O2 6085   3.001   3.782   2.673  0.0044  0.3644  0.1112
  456EMC     O3 6086   2.884   3.589   2.733 -1.3361 -0.2628  0.4208
  456EMC     H1 6087   3.155   3.725   2.945  2.0710 -3.0959  0.9465
  456EMC     H2 6088   3.104   3.590   2.841  1.2225  1.8782 -1.8284
  456EMC     H3 6089   3.027   3.609   2.992  1.6742  0.5488  0.8061
  456EMC     C4 6090   3.232   3.746   2.580 -0.8086  0.1137 -0.0496
  456EMC     H4 6091   3.053   3.743   2.473 -1.1347 -2.2779  0.1763
  456EMC     H5 6092   3.071   3.607   2.589 -0.7015 -0.3210  1.2486
  456EMC     H6 6093   3.263   3.717   2.681  0.9325  1.5899 -0.1028
  456EMC     H7 6094   3.252   3.851   2.558  0.7600 -0.3764 -1.1770
  456EMC     H8 6095   3.290   3.683   2.512  2.6147 -0.9510  3.4661
  457EMC     C1 6096   1.748   2.946   2.508 -0.2059 -0.3191 -0.3892
  457EMC     C2 6097   1.409   2.802   2.607 -0.4462  0.3190 -0.1585
  457EMC     C3 6098   1.640   2.789   2.645 -0.2900  0.7043 -0.7194
  457EMC     O1 6099   1.680   2.911   2.628 -0.3985 -0.0045 -0.1232
  457EMC     O2 6100   1.524   2.848   2.671  0.1330  0.0703 -0.1619
  457EMC     O3 6101   1.663   2.699   2.566 -0.1693 -0.2893 -0.7028
  457EMC     H1 6102   1.685   2.985   2.428  0.7312 -1.2009 -1.6125
  457EMC     H2 6103   1.804   2.863   2.466  3.0841  0.0820  2.7145
  457EMC     H3 6104   1.821   3.023   2.534  0.9640 -1.3311 -0.5764
  457EMC     C4 6105   1.289   2.866   2.669  0.3912 -0.1368  0.0672
  457EMC     H4 6106   1.402   2.693   2.603 -2.0480  0.4004 -0.3229
  457EMC     H5 6107   1.423   2.836   2.504 -2.8345  0.7147 -0.4077
  457EMC     H6 6108   1.293   2.973   2.649  1.6954  0.2336  2.0825
  457EMC     H7 6109   1.297   2.858   2.777  1.0051 -3.7773 -0.1106
  457EMC     H8 6110   1.196   2.826   2.628 -0.5074  2.3723 -0.5400
  458EMC     C1 6111   4.467   1.649   1.834  0.0039  0.6484 -0.5860
  458EMC     C2 6112   4.138   1.758   1.615 -0.1703  0.1807 -0.1709
  458EMC     C3 6113   4.366   1.812   1.683 -0.3473  0.3591 -0.5428
  458EMC     O1 6114   4.422   1.778   1.805  0.1533 -0.7802  0.1246
  458EMC     O2 6115   4.266   1.718   1.661 -0.0512  0.0402  0.3456
  458EMC     O3 6116   4.357   1.929   1.665  0.5258 -0.1037  0.5509
  458EMC     H1 6117   0.021   1.652   1.922 -0.6413 -0.4863 -0.0394
  458EMC     H2 6118   0.016   1.606   1.754 -2.4138 -2.6267 -0.8608
  458EMC     H3 6119   4.383   1.580   1.848  2.1205 -2.1744 -0.9474
  458EMC     C4 6120   4.041   1.642   1.627 -0.1028 -0.0549 -1.0146
  458EMC     H4 6121   4.114   1.807   1.521 -2.4972 -0.3706  0.0587
  458EMC     H5 6122   4.111   1.833   1.689  0.8777  0.6468 -0.2545
  458EMC     H6 6123   4.010   1.601   1.723  1.7651  0.0728 -0.3110
  458EMC     H7 6124   4.079   1.552   1.579 -2.1632 -0.9172 -1.1338
  458EMC     H8 6125   3.955   1.673   1.567 -0.5179  2.2274  0.6054
  459EMC     C1 6126   1.666   1.001   3.872 -0.2564  0.3225 -0.9798
  459EMC     C2 6127   1.454   1.065   4.283 -0.1111  0.3032  1.7335
  459EMC     C3 6128   1.591   1.085   4.085 -0.4700 -0.1008  0.3554
  459EMC     O1 6129   1.560   1.055   3.959  0.1649 -0.5677  0.8327
  459EMC     O2 6130   1.472   1.053   4.142 -0.4738  0.2506 -0.5092
  459EMC     O3 6131   1.703   1.093   4.142 -0.2664 -0.5406  0.2119
  459EMC     H1 6132   1.766   1.044   3.875 -0.5329  0.9447  0.3552
  459EMC     H2 6133   1.644   1.017   3.767 -0.7977  0.9634 -0.7781
  459EMC     H3 6134   1.685   0.896   3.894  0.0871  0.3213 -1.2754
  459EMC     C4 6135   1.343   0.964   4.328  0.1047 -0.3733 -0.0270
  459EMC     H4 6136   1.419   1.165   4.306  0.5880  0.6811  1.2023
  459EMC     H5 6137   1.552   1.057   4.330  1.0565  1.2984 -0.3698
  459EMC     H6 6138   1.332   0.978   4.435  0.7998  1.8173 -0.1915
  459EMC     H7 6139   1.362   0.858   4.308 -3.2643 -1.0399 -0.2505
  459EMC     H8 6140   1.247   0.979   4.278 -0.4075 -3.9431 -0.4018
  460EMC     C1 6141   2.201   1.881   2.105 -0.3433  0.6101 -0.5976
  460EMC     C2 6142   2.312   1.484   2.329 -0.5139  0.4695 -0.0735
  460EMC     C3 6143   2.279   1.707   2.248 -0.6050  0.0163 -0.5760
  460EMC     O1 6144   2.246   1.746   2.128  0.3793  0.2481  0.1105
  460EMC     O2 6145   2.334   1.586   2.234 -0.0866 -0.6547 -0.0533
  460EMC     O3 6146   2.229   1.754   2.348 -0.3878  0.5699 -0.1391
  460EMC     H1 6147   2.290   1.944   2.109  0.7972 -0.9159 -0.5163
  460EMC     H2 6148   2.122   1.914   2.171  0.4919  1.4622 -0.0051
  460EMC     H3 6149   2.177   1.880   1.998  3.7702 -0.9394 -1.7211
  460EMC     C4 6150   2.410   1.373   2.292  0.3130 -0.3141 -0.2265
  460EMC     H4 6151   2.211   1.444   2.326 -0.0255 -1.2409  2.7871
  460EMC     H5 6152   2.329   1.519   2.431 -0.3514 -1.9159  0.7819
  460EMC     H6 6153   2.442   1.322   2.382  1.1542  0.8641  0.1702
  460EMC     H7 6154   2.506   1.410   2.255  0.3380  0.0238  0.1779
  460EMC     H8 6155   2.360   1.317   2.213 -0.7017  1.2062 -0.7177
  461EMC     C1 6156   1.087   3.019   4.276 -0.1001 -0.4857 -0.1431
  461EMC     C2 6157   0.867   2.975   0.148  0.5140 -0.3075  0.3351
  461EMC     C3 6158   0.893   2.985   4.422  0.4846 -0.4885  0.5215
  461EMC     O1 6159   1.010   2.950   4.377 -0.4227  0.3327  0.2893
  461EMC     O2 6160   0.893   2.911   0.025 -0.5703 -0.1329 -0.1701
  461EMC     O3 6161   0.836   3.094   4.402 -0.3540  0.1168 -0.5802
  461EMC     H1 6162   1.133   3.115   4.297 -0.0254 -0.7678  1.0860
  461EMC     H2 6163   1.028   3.039   4.186 -3.0207 -2.0501  1.2633
  461EMC     H3 6164   1.173   2.966   4.235  0.9325  0.6561  0.4734
  461EMC     C4 6165   0.892   2.875   0.251 -0.2201 -0.0922 -0.3226
  461EMC     H4 6166   0.766   3.016   0.152  0.4451 -0.4965  0.5301
  461EMC     H5 6167   0.931   3.062   0.163 -0.6214  0.5197  0.5163
  461EMC     H6 6168   0.830   2.789   0.227 -1.9845  1.3490 -1.1299
  461EMC     H7 6169   0.863   2.916   0.347 -1.6446  0.1595 -0.8302
  461EMC     H8 6170   0.995   2.841   0.260 -0.6520 -1.7224 -1.1408
  462EMC     C1 6171   2.439   2.522   4.058  0.1681  0.0460  0.6129
  462EMC     C2 6172   2.357   2.300   3.666 -0.0825 -0.1873 -0.6051
  462EMC     C3 6173   2.410   2.368   3.880  0.3675 -0.4628  0.0971
  462EMC     O1 6174   2.461   2.485   3.928  0.4763  0.6890  0.0818
  462EMC     O2 6175   2.434   2.375   3.752 -0.2889 -0.2491 -0.0205
  462EMC     O3 6176   2.329   2.295   3.944  0.3927  0.5516 -0.3451
  462EMC     H1 6177   2.335   2.505   4.086  0.4587 -2.0916  0.5449
  462EMC     H2 6178   2.449   2.630   4.069 -3.7600  0.6688 -0.5435
  462EMC     H3 6179   2.498   2.454   4.119  0.8558 -0.1507 -0.2624
  462EMC     C4 6180   2.398   2.314   3.515 -0.4463 -0.4377  0.1057
  462EMC     H4 6181   2.260   2.336   3.701 -0.2615 -1.9415  0.8121
  462EMC     H5 6182   2.371   2.195   3.688  0.2645 -0.3650 -1.6142
  462EMC     H6 6183   2.503   2.292   3.497 -0.5563 -0.1453 -0.9614
  462EMC     H7 6184   2.383   2.418   3.488 -0.0563 -0.3937  0.0582
  462EMC     H8 6185   2.331   2.247   3.460  0.1488 -1.1319  0.2180
  463EMC     C1 6186   0.028   3.964   0.858  0.1799 -0.4365 -0.3663
  463EMC     C2 6187   0.123   3.654   0.646  0.2142  1.0767  0.4629
  463EMC     C3 6188   0.209   3.835   0.780 -0.0177  0.2850 -0.1847
  463EMC     O1 6189   0.120   3.930   0.755  0.3232 -0.9456 -0.5171
  463EMC     O2 6190   0.161   3.792   0.665 -0.3769 -0.3459  0.0027
  463EMC     O3 6191   0.201   3.762   0.886 -0.3322 -0.7364  0.2888
  463EMC     H1 6192   4.477   3.886   0.903  0.9403 -1.1618 -0.5745
  463EMC     H2 6193   4.468   4.034   0.812 -0.3985 -1.3875 -0.9668
  463EMC     H3 6194   0.091   4.014   0.932  2.1594  1.6563 -3.2146
  463EMC     C4 6195   0.168   3.590   0.516  0.2303  0.2464  0.3743
  463EMC     H4 6196   0.018   3.638   0.671  0.2570 -2.5126 -1.1239
  463EMC     H5 6197   0.193   3.598   0.709  2.9773  0.9718 -2.4301
  463EMC     H6 6198   0.275   3.607   0.500  0.1992 -1.1088 -1.6188
  463EMC     H7 6199   0.107   3.627   0.434 -1.1751 -0.5806  1.0118
  463EMC     H8 6200   0.167   3.481   0.526  0.3867  0.1578 -0.4996
  464EMC     C1 6201   4.384   0.165   0.151 -0.2254  0.1539 -0.3720
  464EMC     C2 6202   0.054   0.426   0.309 -0.8710 -0.1627 -0.1678
  464EMC     C3 6203   4.508   0.378   0.085  0.0453  0.5392 -0.5006
  464EMC     O1 6204   4.506   0.242   0.120 -0.2379 -0.3773 -0.0456
  464EMC     O2 6205   0.062   0.352   0.198  0.1083 -0.1498  0.5717
  464EMC     O3 6206   4.409   0.448   0.073 -0.3130  0.0652 -0.0852
  464EMC     H1 6207   4.319   0.161   0.064 -0.5278  2.3233 -0.3190
  464EMC     H2 6208   4.327   0.217   0.228  1.0299  0.2017  0.5573
  464EMC     H3 6209   4.409   0.064   0.183  1.5200 -0.0272 -2.1178
  464EMC     C4 6210   0.164   0.526   0.332  0.5619 -0.8713  0.3796
  464EMC     H4 6211   0.057   0.347   0.384 -2.2317  0.4933  0.6306
  464EMC     H5 6212   4.471   0.482   0.320  0.8618  2.6932  1.5960
  464EMC     H6 6213   0.153   0.603   0.255 -3.2060 -2.1235 -0.5815
  464EMC     H7 6214   0.265   0.486   0.320  1.2366  0.6329  0.8501
  464EMC     H8 6215   0.146   0.580   0.425  1.9631  1.0057 -0.3813
  465EMC     C1 6216   2.066   4.225   2.000 -0.2125 -0.1922 -0.4058
  465EMC     C2 6217   1.685   4.375   1.987 -0.0946  1.2461  0.2979
  465EMC     C3 6218   1.834   4.216   2.087 -0.1135 -0.1899  0.0616
  465EMC     O1 6219   1.944   4.287   2.046  0.4802 -0.0489  0.7907
  465EMC     O2 6220   1.739   4.247   1.997  0.0468  0.0463  0.0525
  465EMC     O3 6221   1.842   4.100   2.139  0.4021 -0.0442 -0.5101
  465EMC     H1 6222   2.029   4.139   1.945 -1.0635 -0.5798  0.7218
  465EMC     H2 6223   2.122   4.169   2.074 -0.3353 -1.1195 -0.9948
  465EMC     H3 6224   2.121   4.283   1.926  0.1997 -2.6070 -2.1399
  465EMC     C4 6225   1.631   4.394   1.851  0.1582 -0.2785 -0.5406
  465EMC     H4 6226   1.746   4.458   2.022 -0.4230  1.0413  1.3747
  465EMC     H5 6227   1.606   4.369   2.061 -0.4321  1.5178 -0.0373
  465EMC     H6 6228   1.550   4.467   1.849 -0.8353 -1.2273  1.3433
  465EMC     H7 6229   1.597   4.297   1.814 -1.8173 -0.0267  0.4209
  465EMC     H8 6230   1.707   4.428   1.782  0.7513  0.1852  0.3237
  466EMC     C1 6231   4.371   3.892   1.840 -0.7070 -0.3637 -0.2321
  466EMC     C2 6232   0.237   4.042   1.977 -0.7776  0.1595  0.1089
  466EMC     C3 6233   0.046   4.054   1.827 -0.0057 -0.1041  0.4988
  466EMC     O1 6234   4.428   4.025   1.853  0.1607 -0.2574  0.2186
  466EMC     O2 6235   0.123   3.980   1.913 -0.5011  0.0503 -0.8550
  466EMC     O3 6236   0.077   4.165   1.791 -0.3386 -0.4092 -0.0639
  466EMC     H1 6237   4.263   3.900   1.838 -0.8754 -1.8390  0.8210
  466EMC     H2 6238   4.402   3.822   1.918 -4.1176 -0.2437  1.4124
  466EMC     H3 6239   4.395   3.834   1.750  0.7743 -2.2393  1.2602
  466EMC     C4 6240   0.253   3.990   2.123 -0.3837  0.4193  0.2994
  466EMC     H4 6241   0.233   4.151   1.978  0.2274  0.2184  1.8266
  466EMC     H5 6242   0.334   4.015   1.935  0.2652 -0.4337  2.7111
  466EMC     H6 6243   0.251   3.882   2.108 -1.6128  0.6456 -1.4674
  466EMC     H7 6244   0.166   4.019   2.183 -0.5032 -1.1430  0.9227
  466EMC     H8 6245   0.349   4.017   2.167  0.5296  1.0257 -1.9392
  467EMC     C1 6246   1.435   0.090   4.123  0.2500  0.4758  0.1377
  467EMC     C2 6247   1.670   0.059   4.470  0.4135 -0.5233  0.0881
  467EMC     C3 6248   1.628   0.156   4.251  0.5401  0.1164 -0.5769
  467EMC     O1 6249   1.503   0.105   4.247  0.0706  0.4225  0.7847
  467EMC     O2 6250   1.625   0.055   4.336  0.2349 -0.1358  0.5108
  467EMC     O3 6251   1.654   0.270   4.296 -0.3824  0.5818  0.2770
  467EMC     H1 6252   1.453   0.184   4.069  2.5714 -0.1847 -0.3426
  467EMC     H2 6253   1.328   0.083   4.143  0.6407 -1.2361  1.8927
  467EMC     H3 6254   1.482   0.021   4.053  1.4636  2.4264 -1.0530
  467EMC     C4 6255   1.618   4.454   0.041 -0.8309  0.2356  0.3968
  467EMC     H4 6256   1.639   0.152   0.009 -1.5081 -1.2636  0.3847
  467EMC     H5 6257   1.778   0.064   4.470  0.5246 -1.7175 -2.0359
  467EMC     H6 6258   1.510   4.453   0.052 -0.9660  0.3881 -0.7841
  467EMC     H7 6259   1.659   4.458   0.142 -2.6970  0.1931  1.1945
  467EMC     H8 6260   1.646   4.358   4.506  1.2868 -0.0349  2.1098
  468EMC     C1 6261   0.450   0.519   3.556  0.1859 -0.5575  0.5834
  468EMC     C2 6262   0.110   0.704   3.466 -0.0321 -0.5229 -0.1628
  468EMC     C3 6263   0.241   0.586   3.643 -0.9021  0.0599  0.6790
  468EMC     O1 6264   0.314   0.493   3.577 -0.4507 -0.2174 -0.5607
  468EMC     O2 6265   0.184   0.588   3.521  0.2572 -0.1314 -0.3320
  468EMC     O3 6266   0.285   0.693   3.691  0.6379  0.2550  0.1664
  468EMC     H1 6267   0.506   0.449   3.494 -0.6108  0.1254 -0.9614
  468EMC     H2 6268   0.488   0.526   3.658 -1.3336 -0.4232  1.1667
  468EMC     H3 6269   0.479   0.619   3.521 -0.3195 -0.1418  1.3423
  468EMC     C4 6270   0.026   0.652   3.352 -0.0466  0.1735 -0.2478
  468EMC     H4 6271   0.177   0.783   3.430  1.1519 -1.5366 -0.2542
  468EMC     H5 6272   0.035   0.744   3.535  1.1927  0.7473  0.4893
  468EMC     H6 6273   0.093   0.615   3.274 -1.2832 -0.1862 -1.1618
  468EMC     H7 6274   4.456   0.721   3.327  1.2868  2.5849  1.7587
  468EMC     H8 6275   4.487   0.557   3.373 -0.9695  1.2208  2.7435
  469EMC     C1 6276   3.270   2.148   0.740  0.7206  0.2015 -0.6298
  469EMC     C2 6277   3.366   2.408   0.449 -0.2824  1.0610  0.6966
  469EMC     C3 6278   3.306   2.370   0.678 -0.5082 -0.0870 -0.1523
  469EMC     O1 6279   3.362   2.251   0.702  0.2536 -0.4012 -0.2615
  469EMC     O2 6280   3.402   2.360   0.579 -0.1686 -0.0472  0.4040
  469EMC     O3 6281   3.189   2.396   0.657 -0.0502 -0.0078  0.5084
  469EMC     H1 6282   3.315   2.062   0.790 -0.3312  0.2317  0.4257
  469EMC     H2 6283   3.228   2.100   0.652  0.5289  1.2923 -1.1445
  469EMC     H3 6284   3.186   2.184   0.800  1.8283  0.5558  0.7690
  469EMC     C4 6285   3.491   2.476   0.391 -0.2666  0.3235  0.0545
  469EMC     H4 6286   3.298   2.492   0.462 -1.9543  0.0320 -0.9700
  469EMC     H5 6287   3.327   2.331   0.383  1.5066 -0.6768  1.5690
  469EMC     H6 6288   3.475   2.538   0.303 -1.3621 -0.4538 -0.3178
  469EMC     H7 6289   3.574   2.410   0.365  0.0182  0.3340  0.9276
  469EMC     H8 6290   3.538   2.539   0.467 -0.3564 -1.3669  1.5739
  470EMC     C1 6291   4.039   2.987   4.259 -0.3460 -0.4016  0.4141
  470EMC     C2 6292   4.467   3.002   4.047  0.2128 -0.0159  0.8568
  470EMC     C3 6293   4.248   2.975   4.134  0.2800 -0.6202  0.1633
  470EMC     O1 6294   4.183   3.014   4.239  0.2644  0.0093 -0.4279
  470EMC     O2 6295   4.375   3.025   4.145 -0.1544 -0.5015 -0.4916
  470EMC     O3 6296   4.198   2.897   4.049  0.4632  0.2364 -0.1252
  470EMC     H1 6297   4.024   3.024   4.361 -1.0605  2.0652 -0.5083
  470EMC     H2 6298   4.021   2.880   4.246 -1.5457 -0.0253 -1.3337
  470EMC     H3 6299   3.971   3.039   4.191 -0.0848 -0.4538  0.1138
  470EMC     C4 6300   0.096   2.994   4.116  0.5198  0.0487 -0.5896
  470EMC     H4 6301   4.469   3.091   3.984  1.0416 -0.2878  0.4844
  470EMC     H5 6302   4.442   2.919   3.981 -3.0773  1.1874  0.4174
  470EMC     H6 6303   0.172   2.952   4.049  0.8585  2.2430 -1.6646
  470EMC     H7 6304   0.101   2.924   4.199  2.0621  0.8188 -0.0050
  470EMC     H8 6305   0.125   3.093   4.149 -0.7651  0.8208 -1.6662
  471EMC     C1 6306   0.391   3.671   1.481  0.2186 -0.4372  0.2146
  471EMC     C2 6307   4.494   3.557   1.477 -0.3427  0.1952  0.2434
  471EMC     C3 6308   0.214   3.530   1.430  0.7479 -0.4551 -0.2799
  471EMC     O1 6309   0.283   3.586   1.526 -1.3639  0.4033 -0.6065
  471EMC     O2 6310   0.119   3.562   1.521 -0.3013 -1.1972  0.0407
  471EMC     O3 6311   0.213   3.567   1.316 -0.5950  0.3403 -0.5701
  471EMC     H1 6312   0.466   3.618   1.421  1.9901  0.5184  1.4674
  471EMC     H2 6313   0.441   3.735   1.554  0.5671  1.7803 -1.8423
  471EMC     H3 6314   0.347   3.740   1.410 -0.4589 -0.2336  0.8277
  471EMC     C4 6315   4.402   3.562   1.598 -0.4127 -0.7871 -0.0250
  471EMC     H4 6316   4.478   3.465   1.421 -1.3364  0.0526  0.7354
  471EMC     H5 6317   4.475   3.637   1.405 -3.3460  1.5612  2.3094
  471EMC     H6 6318   4.427   3.652   1.653 -0.9925 -0.4852 -0.2498
  471EMC     H7 6319   4.433   3.482   1.666  0.2259  0.0134  0.6356
  471EMC     H8 6320   4.295   3.570   1.576 -0.1444  0.4325 -0.9993
  472EMC     C1 6321   0.124   0.853   0.762  0.2160 -0.1137 -0.6120
  472EMC     C2 6322   0.307   0.701   1.045  0.2413 -0.1157 -0.7800
  472EMC     C3 6323   0.330   0.750   0.813 -0.3276  0.2929  0.0777
  472EMC     O1 6324   0.216   0.750   0.748  0.1798  0.0829 -0.0038
  472EMC     O2 6325   0.283   0.672   0.909 -0.4966  0.5386 -0.3954
  472EMC     O3 6326   0.403   0.848   0.835 -0.5958 -0.1492  0.5293
  472EMC     H1 6327   0.028   0.810   0.790  0.4601 -1.7750 -2.1193
  472EMC     H2 6328   0.119   0.905   0.667 -1.0449  4.3569  1.6298
  472EMC     H3 6329   0.151   0.934   0.830  0.1671 -0.0573 -0.6596
  472EMC     C4 6330   0.192   0.639   1.119 -0.0389 -0.2273  0.1332
  472EMC     H4 6331   0.321   0.807   1.063  0.8703 -0.6530  2.3524
  472EMC     H5 6332   0.389   0.635   1.071  0.2104 -0.0080 -0.4021
  472EMC     H6 6333   0.094   0.662   1.078 -0.5503 -2.2698  0.0767
  472EMC     H7 6334   0.198   0.662   1.225 -1.1883  0.3899  0.0812
  472EMC     H8 6335   0.196   0.530   1.108  0.5367 -0.5493  2.8186
  473EMC     C1 6336   4.482   1.986   0.397 -0.3175  0.8651  0.3217
  473EMC     C2 6337   4.405   1.588   0.522 -0.4112 -0.0298  0.2791
  473EMC     C3 6338   4.495   1.748   0.377  0.6982 -0.3443 -0.6344
  473EMC     O1 6339   4.422   1.865   0.367  0.3360 -0.0045 -0.2453
  473EMC     O2 6340   4.390   1.711   0.452  0.3846  0.8607  0.1274
  473EMC     O3 6341   0.102   1.740   0.418 -0.1528 -0.0698  0.1738
  473EMC     H1 6342   0.016   2.025   0.305 -2.5976 -0.9264 -1.6911
  473EMC     H2 6343   0.042   1.982   0.480 -2.1276  0.1827  1.8906
  473EMC     H3 6344   4.405   2.051   0.438 -0.7900  0.1659  0.5767
  473EMC     C4 6345   4.283   1.583   0.602 -0.7479 -0.2958 -0.0659
  473EMC     H4 6346   4.493   1.592   0.587 -1.5171 -0.5281  1.8782
  473EMC     H5 6347   4.404   1.505   0.451 -2.0516  0.1141  0.1027
  473EMC     H6 6348   4.278   1.663   0.676 -0.4862  0.0377 -0.4073
  473EMC     H7 6349   4.278   1.489   0.657  2.8177 -0.1549  0.6945
  473EMC     H8 6350   4.191   1.583   0.542 -0.2775 -0.4981 -0.7991
  474EMC     C1 6351   3.556   3.693   4.038  0.1036 -0.1011  0.2634
  474EMC     C2 6352   3.192   3.796   3.787 -0.6336 -0.2031  0.3242
  474EMC     C3 6353   3.347   3.665   3.924 -0.2517 -0.4189 -0.3373
  474EMC     O1 6354   3.418   3.709   4.037  0.0839 -0.3349  0.2131
  474EMC     O2 6355   3.247   3.757   3.913 -0.0941  0.2355  0.3849
  474EMC     O3 6356   3.391   3.603   3.826 -0.3601 -0.4256  0.6489
  474EMC     H1 6357   3.584   3.662   4.139  2.3544  0.2873 -0.1934
  474EMC     H2 6358   3.600   3.786   4.005  0.6403 -0.4807 -0.1041
  474EMC     H3 6359   3.596   3.626   3.962 -1.8022 -1.4802  0.4064
  474EMC     C4 6360   3.078   3.898   3.819  0.4365 -0.0124 -0.0844
  474EMC     H4 6361   3.150   3.707   3.739  0.6530 -0.1055 -1.0570
  474EMC     H5 6362   3.270   3.833   3.720  0.4562 -2.0331  0.5092
  474EMC     H6 6363   3.028   3.925   3.726  0.3758 -2.1850 -0.7337
  474EMC     H7 6364   3.122   3.987   3.864 -0.2898 -0.1533  0.9377
  474EMC     H8 6365   3.013   3.839   3.883  0.7703  0.2011  0.4535
  475EMC     C1 6366   0.788   0.158   1.178  0.2156 -0.1236  0.0309
  475EMC     C2 6367   0.469   0.295   1.093  0.4296  0.0465 -0.3226
  475EMC     C3 6368   0.703   0.308   1.011  0.0126 -0.3762 -0.0999
  475EMC     O1 6369   0.717   0.183   1.061 -0.3233  0.5092  0.1417
  475EMC     O2 6370   0.577   0.271   0.997  0.2235  0.0836  0.3730
  475EMC     O3 6371   0.740   0.407   1.081 -0.4129  0.1267  0.1108
  475EMC     H1 6372   0.745   0.209   1.264  1.3298 -0.8205  1.0282
  475EMC     H2 6373   0.894   0.172   1.158  0.1027  1.0637  0.2070
  475EMC     H3 6374   0.780   0.051   1.198 -0.0829  0.0535  0.9306
  475EMC     C4 6375   0.346   0.215   1.048 -0.1768 -0.4541 -0.9265
  475EMC     H4 6376   0.442   0.400   1.096 -0.2441 -0.0395 -2.1362
  475EMC     H5 6377   0.508   0.269   1.191  2.7876 -1.8819 -1.6591
  475EMC     H6 6378   0.344   0.227   0.940  1.6455  0.4985 -0.9013
  475EMC     H7 6379   0.250   0.245   1.089  0.1456 -1.5806  0.7831
  475EMC     H8 6380   0.345   0.111   1.081 -1.9304 -0.0487  0.4627
  476EMC     C1 6381   0.843   1.530   2.992  0.1048 -0.0142 -0.8285
  476EMC     C2 6382   0.548   1.819   2.928 -0.4461 -0.3675  0.4992
  476EMC     C3 6383   0.765   1.726   2.880 -0.0846  0.0391 -0.1750
  476EMC     O1 6384   0.742   1.594   2.916  0.1711 -0.1516  0.1773
  476EMC     O2 6385   0.632   1.709   2.914  0.2127  0.1399  0.0103
  476EMC     O3 6386   0.842   1.798   2.944 -0.3620  0.3435  0.9264
  476EMC     H1 6387   0.846   1.569   3.094  1.0801 -0.4870 -0.6688
  476EMC     H2 6388   0.943   1.530   2.950  1.6725 -0.4852  2.5719
  476EMC     H3 6389   0.807   1.427   2.992 -0.6055  0.1899  1.1503
  476EMC     C4 6390   0.405   1.781   2.929 -0.1179  0.0176  0.2938
  476EMC     H4 6391   0.554   1.885   2.841 -0.7091 -0.3276  0.5106
  476EMC     H5 6392   0.571   1.881   3.015  2.0696  1.2071 -1.1703
  476EMC     H6 6393   0.379   1.717   3.013 -0.0338  2.0203  1.9431
  476EMC     H7 6394   0.397   1.731   2.833  1.9184  1.2047 -0.5642
  476EMC     H8 6395   0.350   1.875   2.924 -1.7237 -0.8237  1.3973
  477EMC     C1 6396   2.091   0.972   0.296 -0.0892 -0.4956 -0.4428
  477EMC     C2 6397   2.129   0.551   0.467 -0.0141 -0.1117  0.3882
  477EMC     C3 6398   2.102   0.743   0.326  0.3913 -0.2826  0.4466
  477EMC     O1 6399   2.042   0.856   0.358  0.1270 -0.9862 -0.5197
  477EMC     O2 6400   2.054   0.659   0.420  0.0705  0.2241 -0.0445
  477EMC     O3 6401   2.183   0.725   0.232 -0.3952 -0.2778  0.3606
  477EMC     H1 6402   2.172   1.003   0.362 -0.9798 -2.2235  1.5813
  477EMC     H2 6403   2.024   1.058   0.290 -1.0043 -1.1820 -0.1832
  477EMC     H3 6404   2.130   0.959   0.195  1.0411 -0.4511 -0.0294
  477EMC     C4 6405   2.111   0.553   0.614  0.0463 -0.3532 -0.7422
  477EMC     H4 6406   2.232   0.587   0.454 -0.3257  1.4234  1.7804
  477EMC     H5 6407   2.098   0.464   0.410  1.7042 -1.5075  1.4855
  477EMC     H6 6408   2.008   0.567   0.645  0.9557  0.5404  2.2453
  477EMC     H7 6409   2.166   0.631   0.668  1.4641 -1.1581 -0.9642
  477EMC     H8 6410   2.144   0.462   0.665  1.7133 -0.1892 -1.4578
  478EMC     C1 6411   2.890   1.848   2.434  0.0600  1.1692  0.4245
  478EMC     C2 6412   3.256   1.773   2.324  0.0191  0.3040 -0.5957
  478EMC     C3 6413   3.075   1.698   2.444 -0.6433  0.3325 -0.0722
  478EMC     O1 6414   2.981   1.759   2.371  0.9397 -0.3107 -1.0712
  478EMC     O2 6415   3.128   1.732   2.330  0.2460 -0.0825 -0.0924
  478EMC     O3 6416   3.110   1.719   2.559 -0.0306 -0.5280  0.1801
  478EMC     H1 6417   2.931   1.943   2.468 -1.8026  2.5830 -1.0690
  478EMC     H2 6418   2.858   1.787   2.518 -0.7110  0.0127 -0.6762
  478EMC     H3 6419   2.795   1.864   2.384  1.8652  2.2129 -3.0318
  478EMC     C4 6420   3.298   1.784   2.176 -0.1500  0.7918  0.2273
  478EMC     H4 6421   3.314   1.698   2.376 -2.3055  0.0558  1.8387
  478EMC     H5 6422   3.265   1.872   2.369  0.7086  0.0280 -0.1281
  478EMC     H6 6423   3.247   1.874   2.141 -0.7786 -0.4810 -2.3752
  478EMC     H7 6424   3.277   1.701   2.109 -0.1862 -0.4140  1.6802
  478EMC     H8 6425   3.404   1.806   2.168 -0.3043  0.7752 -3.9839
  479EMC     C1 6426   4.451   4.322   3.762 -0.4296  0.0475  0.0223
  479EMC     C2 6427   3.999   4.267   3.739  0.4285 -0.3473  0.0301
  479EMC     C3 6428   4.230   4.238   3.761 -0.3009 -0.0736  0.7085
  479EMC     O1 6429   4.328   4.305   3.831  0.3578  0.0797 -0.0250
  479EMC     O2 6430   4.117   4.268   3.818 -0.3623  0.1181 -0.4894
  479EMC     O3 6431   4.243   4.206   3.642 -0.5381 -0.4197  0.3521
  479EMC     H1 6432   0.023   4.309   3.832  0.2426 -0.7895 -0.8840
  479EMC     H2 6433   4.449   4.419   3.711 -3.2045 -0.9577 -2.0652
  479EMC     H3 6434   4.476   4.237   3.698 -0.2735 -1.3571  1.8548
  479EMC     C4 6435   3.876   4.299   3.834 -0.5728  0.5120  0.8035
  479EMC     H4 6436   3.991   4.164   3.702 -0.5945 -0.9321  1.7520
  479EMC     H5 6437   4.014   4.330   3.651 -0.0031  0.7210  0.7061
  479EMC     H6 6438   3.865   4.219   3.907 -4.8895  1.5337  1.5501
  479EMC     H7 6439   3.796   4.298   3.761 -0.2579 -0.0537  0.4598
  479EMC     H8 6440   3.881   4.387   3.899  1.9550  1.1174 -0.0770
  480EMC     C1 6441   4.006   0.752   1.479  0.5301  0.7483 -0.5183
  480EMC     C2 6442   3.999   0.913   1.849 -0.1788 -0.6125 -0.2200
  480EMC     C3 6443   4.053   0.725   1.715 -0.5119  0.2024  0.1531
  480EMC     O1 6444   4.094   0.743   1.586 -0.0478 -0.4483 -0.6552
  480EMC     O2 6445   4.079   0.851   1.755 -0.4924 -0.0913 -0.1944
  480EMC     O3 6446   3.953   0.658   1.740 -0.3861  0.3189 -0.1515
  480EMC     H1 6447   3.927   0.827   1.480  0.6415  0.8676  0.1379
  480EMC     H2 6448   3.950   0.660   1.468 -2.0404  2.0901  0.3848
  480EMC     H3 6449   4.066   0.758   1.388  0.2406  1.8009 -0.6527
  480EMC     C4 6450   3.956   1.052   1.796  0.3299 -0.2116 -0.7725
  480EMC     H4 6451   4.071   0.927   1.930  1.1091  0.6034 -1.5299
  480EMC     H5 6452   3.913   0.853   1.881  1.2960 -3.5191 -1.3725
  480EMC     H6 6453   3.884   1.041   1.715 -0.5663  2.9130 -0.5352
  480EMC     H7 6454   4.037   1.115   1.759 -0.8555  1.9961  0.1977
  480EMC     H8 6455   3.908   1.112   1.873  1.7338  1.7559 -1.3488
  481EMC     C1 6456   0.845   1.304   1.509 -0.5439  0.7481  0.3465
  481EMC     C2 6457   1.258   1.137   1.659  0.4415  0.6673 -0.1558
  481EMC     C3 6458   1.044   1.220   1.619  0.2165  0.2738 -0.0897
  481EMC     O1 6459   0.983   1.291   1.527 -0.3616 -0.2194 -0.3733
  481EMC     O2 6460   1.167   1.210   1.582  0.0264  0.2116  0.4952
  481EMC     O3 6461   1.000   1.201   1.734  0.4844  0.2163  0.0859
  481EMC     H1 6462   0.816   1.341   1.410 -3.1452 -0.1597  0.6864
  481EMC     H2 6463   0.807   1.375   1.583 -1.5045  1.6440 -0.9570
  481EMC     H3 6464   0.789   1.215   1.536  0.9164  0.1182  1.4007
  481EMC     C4 6465   1.399   1.184   1.634  0.4363 -0.1408  0.5085
  481EMC     H4 6466   1.250   1.029   1.643 -1.5306  0.9981 -1.8406
  481EMC     H5 6467   1.243   1.167   1.763  0.9044 -0.3473  0.2194
  481EMC     H6 6468   1.468   1.128   1.697  0.4631  0.0090  0.6142
  481EMC     H7 6469   1.413   1.292   1.647 -2.0582  0.2586  0.4153
  481EMC     H8 6470   1.428   1.170   1.530  0.7861  0.7028  0.4827
  482EMC     C1 6471   3.686   0.116   1.901 -0.0841  0.8093 -0.3690
  482EMC     C2 6472   4.002   0.342   1.776  0.0763 -0.7288 -0.0268
  482EMC     C3 6473   3.917   0.138   1.876  0.4838 -0.3513  0.4176
  482EMC     O1 6474   3.800   0.141   1.816 -0.0890 -0.0115  0.2776
  482EMC     O2 6475   3.915   0.224   1.776 -0.6852 -0.2900  0.3583
  482EMC     O3 6476   3.936   0.170   1.995 -0.7692  0.4724 -0.3463
  482EMC     H1 6477   3.598   0.150   1.846 -1.3281  0.0922  1.0792
  482EMC     H2 6478   3.684   0.168   1.997  0.0526  4.5152 -2.1905
  482EMC     H3 6479   3.680   0.007   1.904 -0.2378  0.8205 -0.2633
  482EMC     C4 6480   4.113   0.328   1.671  0.8742 -0.4907  0.1329
  482EMC     H4 6481   4.037   0.361   1.877 -1.0535  2.4990 -0.1238
  482EMC     H5 6482   3.930   0.419   1.747 -0.3786 -0.4162  1.8463
  482EMC     H6 6483   4.195   0.387   1.712  0.9326  0.4427 -1.2531
  482EMC     H7 6484   4.098   0.362   1.569  2.3684  0.0375  0.0595
  482EMC     H8 6485   4.135   0.222   1.662  0.8291 -0.6415  1.5722
  483EMC     C1 6486   0.745   1.118   0.088  0.9795  0.0847  0.1431
  483EMC     C2 6487   0.576   1.187   4.282  0.4424  0.5508 -0.6259
  483EMC     C3 6488   0.563   1.027   4.463  0.5932  0.2895  0.1690
  483EMC     O1 6489   0.612   1.117   0.044 -0.5957 -0.8835  0.9257
  483EMC     O2 6490   0.554   1.153   4.417  1.4332 -0.6367  0.0735
  483EMC     O3 6491   0.628   0.953   4.391  0.4701  0.5940  0.1105
  483EMC     H1 6492   0.808   1.087   0.004  0.5138 -0.2150 -0.1040
  483EMC     H2 6493   0.758   1.045   0.167  1.0399 -0.1878 -0.1195
  483EMC     H3 6494   0.783   1.208   0.137 -2.1772  1.9562 -0.5504
  483EMC     C4 6495   0.498   1.320   4.239  0.3190 -0.2214  0.1084
  483EMC     H4 6496   0.545   1.103   4.220  4.0018  0.3630 -2.4012
  483EMC     H5 6497   0.683   1.195   4.268  0.4278 -0.2547 -1.2721
  483EMC     H6 6498   0.392   1.310   4.258 -0.2241  0.6402 -2.1458
  483EMC     H7 6499   0.504   1.319   4.130  1.9218  1.8885  0.0975
  483EMC     H8 6500   0.530   1.416   4.280 -1.2342 -0.4156  1.8834
  484EMC     C1 6501   4.181   4.100   1.031 -0.1972  0.3176 -0.3719
  484EMC     C2 6502   4.340   4.054   1.376 -1.0138 -0.1420 -0.9806
  484EMC     C3 6503   4.284   4.220   1.201 -0.3194  0.3207  0.8545
  484EMC     O1 6504   4.186   4.142   1.164  0.5590 -0.3325  0.0793
  484EMC     O2 6505   4.250   4.131   1.296  0.4779  0.0303  0.0294
  484EMC     O3 6506   4.393   4.224   1.143  0.4873 -0.2607 -0.1393
  484EMC     H1 6507   4.271   4.045   1.006 -1.6502 -2.6984  0.5676
  484EMC     H2 6508   4.191   4.188   0.968  1.0244  0.4327 -0.0387
  484EMC     H3 6509   4.092   4.043   1.005  0.7139 -1.9358  1.1385
  484EMC     C4 6510   4.270   3.923   1.414  0.1883  0.4667  0.0020
  484EMC     H4 6511   4.357   4.111   1.468  1.0668  0.0007 -1.4048
  484EMC     H5 6512   4.433   4.035   1.324 -0.3776 -0.2551  0.1586
  484EMC     H6 6513   4.341   3.862   1.470  1.0412  0.4036 -1.1230
  484EMC     H7 6514   4.242   3.860   1.330  2.3255 -0.9851  0.2948
  484EMC     H8 6515   4.186   3.937   1.483  1.2804 -0.1266  1.5170
  485EMC     C1 6516   2.357   2.987   1.952 -0.1687  0.4272  0.1488
  485EMC     C2 6517   2.467   2.880   1.496 -0.6647  0.1330  0.6030
  485EMC     C3 6518   2.417   2.947   1.723  0.3354 -0.5594 -0.5005
  485EMC     O1 6519   2.402   2.897   1.850  0.1930  0.1484  0.4553
  485EMC     O2 6520   2.446   2.844   1.632 -0.1405 -0.7487  0.2009
  485EMC     O3 6521   2.369   3.052   1.697 -0.7373 -0.0567 -0.0908
  485EMC     H1 6522   2.259   3.026   1.923  0.6631  2.4515 -0.0185
  485EMC     H2 6523   2.436   3.061   1.960  0.2599 -0.0292  0.2460
  485EMC     H3 6524   2.358   2.943   2.052  3.8203  0.2944  0.2058
  485EMC     C4 6525   2.448   2.765   1.397 -0.9179 -0.0144  0.0180
  485EMC     H4 6526   2.575   2.897   1.497 -1.0805  3.1341  1.0667
  485EMC     H5 6527   2.406   2.965   1.466 -2.0191 -0.6960  0.9184
  485EMC     H6 6528   2.532   2.696   1.410 -0.8913  0.0493  0.1891
  485EMC     H7 6529   2.460   2.792   1.292  0.6194  1.7126  0.5867
  485EMC     H8 6530   2.361   2.708   1.428  0.3355 -0.9661  2.0283
  486EMC     C1 6531   1.640   1.341   2.710 -0.6237  1.1469 -0.0125
  486EMC     C2 6532   1.584   1.728   2.635 -0.5511 -0.2215 -0.5198
  486EMC     C3 6533   1.626   1.557   2.804 -0.2362  0.8299  0.3501
  486EMC     O1 6534   1.564   1.458   2.746 -0.5021  0.6860 -0.3424
  486EMC     O2 6535   1.544   1.618   2.718  0.1134  0.1145  0.3836
  486EMC     O3 6536   1.746   1.574   2.815  0.0370 -0.4873  0.2121
  486EMC     H1 6537   1.579   1.275   2.649 -1.2549  0.4013  1.3705
  486EMC     H2 6538   1.666   1.281   2.797  1.3846  1.8379 -0.0810
  486EMC     H3 6539   1.739   1.362   2.670 -0.9655  0.7592 -1.0905
  486EMC     C4 6540   1.540   1.702   2.499  0.0422 -0.2698  0.1068
  486EMC     H4 6541   1.690   1.750   2.637 -0.9020  1.9438  2.8867
  486EMC     H5 6542   1.543   1.823   2.670 -1.5513 -1.4255  1.8070
  486EMC     H6 6543   1.592   1.621   2.448 -1.4330 -0.2051 -1.6005
  486EMC     H7 6544   1.557   1.790   2.435  0.8124  0.1222  0.8234
  486EMC     H8 6545   1.437   1.672   2.486 -0.0311 -0.0292  0.1284
  487EMC     C1 6546   2.655   0.414   1.700 -0.1048 -0.4896 -0.5005
  487EMC     C2 6547   2.479   0.073   1.797 -0.1467 -0.3005  0.4566
  487EMC     C3 6548   2.465   0.278   1.675  0.3795  0.1413  0.7701
  487EMC     O1 6549   2.541   0.354   1.751  0.3244  0.3783 -0.2323
  487EMC     O2 6550   2.436   0.209   1.781  0.4842  0.2102  0.3219
  487EMC     O3 6551   2.495   0.237   1.561 -0.0175 -0.4142 -0.5830
  487EMC     H1 6552   2.632   0.466   1.607  0.4631  2.7526  1.0396
  487EMC     H2 6553   2.728   0.335   1.684  1.9481  0.7945  1.8410
  487EMC     H3 6554   2.692   0.481   1.779  1.8789  0.1043 -1.8417
  487EMC     C4 6555   2.474   0.055   1.955  0.1896 -0.0754 -0.7078
  487EMC     H4 6556   2.572   0.061   1.742 -0.1514  0.7908  0.1770
  487EMC     H5 6557   2.408   4.509   1.762 -1.5200  1.1875 -0.0436
  487EMC     H6 6558   2.373   0.074   1.991  0.7718  0.2460  0.8434
  487EMC     H7 6559   2.546   0.106   2.019 -1.8132  1.1444  0.6787
  487EMC     H8 6560   2.498   4.459   1.969  0.0792  0.1752  1.8684
  488EMC     C1 6561   2.703   2.899   1.991  0.3384 -0.4747  0.5183
  488EMC     C2 6562   2.726   3.218   1.754  0.1441  0.4279  0.2007
  488EMC     C3 6563   2.814   2.998   1.812  0.3218  0.0133  0.2904
  488EMC     O1 6564   2.708   2.931   1.853 -0.5391  0.1695 -0.3456
  488EMC     O2 6565   2.718   3.077   1.756 -0.2041  0.0930 -0.4417
  488EMC     O3 6566   2.901   3.045   1.881  0.0841 -0.0856 -0.1769
  488EMC     H1 6567   2.758   2.806   2.007 -1.4589 -2.1346 -2.1258
  488EMC     H2 6568   2.598   2.889   2.017  0.0673 -0.4229 -0.5216
  488EMC     H3 6569   2.746   2.976   2.055 -0.0772 -0.1403  0.4021
  488EMC     C4 6570   2.590   3.268   1.784  0.2791  0.1597  0.5741
  488EMC     H4 6571   2.752   3.238   1.650 -1.9931  0.2114 -0.4329
  488EMC     H5 6572   2.798   3.255   1.826 -0.1008  1.0453  0.1345
  488EMC     H6 6573   2.534   3.211   1.859 -1.5710 -0.4905 -1.1925
  488EMC     H7 6574   2.523   3.247   1.701 -1.0797  0.4122  1.5630
  488EMC     H8 6575   2.596   3.376   1.792 -2.8618  0.7353 -2.4606
  489EMC     C1 6576   0.838   1.723   1.277 -0.1701 -0.7275  0.5785
  489EMC     C2 6577   1.216   1.555   1.490  0.2933 -0.4925  0.1880
  489EMC     C3 6578   1.015   1.615   1.382 -0.0649 -0.7160  0.3869
  489EMC     O1 6579   0.922   1.700   1.386 -0.2260 -0.1607 -0.3232
  489EMC     O2 6580   1.102   1.640   1.480 -0.3254  0.1274 -0.3588
  489EMC     O3 6581   1.020   1.523   1.299  0.2366 -0.1806 -0.0763
  489EMC     H1 6582   0.762   1.646   1.265  1.2042 -2.0745  0.0892
  489EMC     H2 6583   0.900   1.730   1.188  0.7417 -1.5991  1.1109
  489EMC     H3 6584   0.792   1.821   1.282  0.8151 -0.3107  2.2749
  489EMC     C4 6585   1.343   1.639   1.511 -0.2790 -0.1325  0.8876
  489EMC     H4 6586   1.217   1.489   1.402  1.4983 -2.0759  1.3204
  489EMC     H5 6587   1.201   1.493   1.578  3.9092 -0.9821  0.6142
  489EMC     H6 6588   1.391   1.635   1.609  0.7123 -1.1958  0.3858
  489EMC     H7 6589   1.338   1.738   1.467 -2.3350 -1.2731 -1.7657
  489EMC     H8 6590   1.425   1.598   1.451 -1.6440 -2.7769  0.6656
  490EMC     C1 6591   2.936   3.516   3.922  0.5897  1.0437  0.3660
  490EMC     C2 6592   3.218   3.303   3.945 -0.4602  0.4676  0.0971
  490EMC     C3 6593   3.045   3.350   3.790 -0.4024  0.3554  0.0454
  490EMC     O1 6594   2.950   3.384   3.872 -0.5049 -0.1034 -0.5070
  490EMC     O2 6595   3.096   3.268   3.888 -0.5218  0.1554  0.3859
  490EMC     O3 6596   3.117   3.430   3.736 -0.2911 -0.0499 -0.0853
  490EMC     H1 6597   2.944   3.595   3.848 -1.5814  1.3761  0.4165
  490EMC     H2 6598   2.998   3.530   4.011 -0.4787 -1.8231  1.7053
  490EMC     H3 6599   2.831   3.533   3.948 -0.6372 -0.4966 -3.0328
  490EMC     C4 6600   3.237   3.210   4.063 -0.9224 -1.1990  0.1770
  490EMC     H4 6601   3.221   3.411   3.964  1.9167  0.7292 -1.3090
  490EMC     H5 6602   3.297   3.290   3.870  1.0747 -0.7696  1.8363
  490EMC     H6 6603   3.344   3.209   4.085 -0.6595  0.8549 -0.7845
  490EMC     H7 6604   3.202   3.108   4.049 -0.9582 -1.0441 -0.9231
  490EMC     H8 6605   3.189   3.245   4.154 -1.3178 -1.0426 -0.0891
  491EMC     C1 6606   1.703   4.037   3.719  0.1174  0.4630  0.5658
  491EMC     C2 6607   1.508   4.257   3.404  0.1963 -0.9239  0.1519
  491EMC     C3 6608   1.560   4.056   3.532 -0.5015 -0.7430  0.5529
  491EMC     O1 6609   1.572   4.059   3.663 -0.4309 -0.2007 -0.6758
  491EMC     O2 6610   1.590   4.185   3.503 -0.0830 -0.3577 -0.1489
  491EMC     O3 6611   1.458   4.010   3.487 -0.1035 -0.4623 -0.1777
  491EMC     H1 6612   1.716   4.075   3.821  1.4335  0.8545  0.2640
  491EMC     H2 6613   1.775   4.078   3.649  3.5168 -2.7866  1.8694
  491EMC     H3 6614   1.707   3.929   3.713 -2.0037  0.4120 -1.1719
  491EMC     C4 6615   1.566   4.403   3.398  0.5261  0.5691  0.5802
  491EMC     H4 6616   1.404   4.265   3.436 -0.5523  0.0010 -2.2904
  491EMC     H5 6617   1.513   4.218   3.303  2.1134 -1.5612  0.4595
  491EMC     H6 6618   1.660   4.392   3.343  0.5236 -0.3995  0.7543
  491EMC     H7 6619   1.579   4.456   3.493 -0.8452 -1.1498  1.7979
  491EMC     H8 6620   1.485   4.455   3.347  0.6992  0.3769  0.1042
  492EMC     C1 6621   4.106   3.158   2.541 -0.3534  0.4870 -0.4207
  492EMC     C2 6622   4.394   3.170   2.371 -0.0372  0.0988  0.3558
  492EMC     C3 6623   4.224   3.329   2.419 -0.0255 -0.3612 -0.1155
  492EMC     O1 6624   4.200   3.264   2.538 -0.1963  0.1689  0.1050
  492EMC     O2 6625   4.356   3.283   2.439  0.5782 -0.3474 -0.0777
  492EMC     O3 6626   4.159   3.317   2.314  0.2403 -0.5338  0.2474
  492EMC     H1 6627   4.002   3.188   2.525 -1.5580 -1.6406  2.6095
  492EMC     H2 6628   4.122   3.110   2.637 -2.9099 -1.0589 -0.6890
  492EMC     H3 6629   4.128   3.077   2.471  0.3927  0.1568  0.1868
  492EMC     C4 6630   0.004   3.116   2.447  0.0775 -0.0642 -0.4106
  492EMC     H4 6631   4.415   3.181   2.265  1.2515  1.6795  0.7396
  492EMC     H5 6632   4.326   3.085   2.376 -0.7695  0.6393 -0.3098
  492EMC     H6 6633   4.487   3.096   2.551 -1.1841  0.0277 -0.7048
  492EMC     H7 6634   0.087   3.187   2.448 -0.2447  0.3459 -1.7345
  492EMC     H8 6635   0.027   3.017   2.408  0.8062  0.7092 -2.0265
  493EMC     C1 6636   3.197   4.193   1.221 -0.3200  0.1926 -0.1980
  493EMC     C2 6637   3.097   3.889   1.415  0.0243  0.2589 -0.2976
  493EMC     C3 6638   3.077   4.129   1.427  0.3739  0.1011 -0.0017
  493EMC     O1 6639   3.195   4.149   1.356  0.0294 -0.2546  0.0908
  493EMC     O2 6640   3.127   4.016   1.477  0.4235 -0.0470 -0.3381
  493EMC     O3 6641   2.966   4.126   1.369 -0.2593  0.5925  0.1190
  493EMC     H1 6642   3.261   4.128   1.162 -0.8385 -1.6912  1.2306
  493EMC     H2 6643   3.206   4.302   1.216  0.9225  0.0760 -1.0391
  493EMC     H3 6644   3.108   4.178   1.159  0.0579  1.2110 -1.0209
  493EMC     C4 6645   3.180   3.774   1.474  0.0595  0.6762  0.4114
  493EMC     H4 6646   3.091   3.898   1.306  1.5961  0.4992 -0.3771
  493EMC     H5 6647   2.990   3.882   1.435 -0.1852  2.3487 -0.4235
  493EMC     H6 6648   3.286   3.795   1.453  0.7142 -1.9034  0.8409
  493EMC     H7 6649   3.168   3.674   1.433  0.2948 -0.9594  3.9278
  493EMC     H8 6650   3.157   3.748   1.577  2.3188 -0.3986  0.7202
  494EMC     C1 6651   0.643   4.203   0.440 -0.1999  0.4824 -0.5585
  494EMC     C2 6652   0.781   4.154   0.051 -0.5060  0.0139  0.0138
  494EMC     C3 6653   0.757   4.076   0.268 -0.3606  1.0105  0.8582
  494EMC     O1 6654   0.758   4.185   0.350  0.3285  0.5674 -0.0341
  494EMC     O2 6655   0.806   4.162   0.188  0.4426  0.1737 -0.5247
  494EMC     O3 6656   0.655   4.015   0.244  0.6350  0.1403  0.1631
  494EMC     H1 6657   0.584   4.281   0.392  1.5634  0.9880 -1.9947
  494EMC     H2 6658   0.671   4.236   0.540 -0.4340 -3.3684  0.9411
  494EMC     H3 6659   0.587   4.111   0.457 -0.0672  0.4625 -0.2385
  494EMC     C4 6660   0.875   4.234   4.472  0.0814 -0.3394 -0.2333
  494EMC     H4 6661   0.685   4.202   0.032 -0.4815 -0.3559 -1.1658
  494EMC     H5 6662   0.773   4.049   0.020 -0.8461  0.1933 -0.5177
  494EMC     H6 6663   0.980   4.206   4.477  0.1377 -0.2010 -0.6254
  494EMC     H7 6664   0.863   4.338   4.501  0.8137 -0.4429  0.4895
  494EMC     H8 6665   0.862   4.230   4.364  2.6569  3.4107 -0.8498
  495EMC     C1 6666   4.257   4.441   3.426 -0.1772 -0.8444 -0.1056
  495EMC     C2 6667   4.078   0.282   3.358  0.5351  0.8224 -0.3796
  495EMC     C3 6668   4.050   0.040   3.378 -0.0683  0.2460  0.3219
  495EMC     O1 6669   4.161   4.496   3.336 -0.0639 -0.6521  0.6412
  495EMC     O2 6670   4.087   0.149   3.308  0.5395  0.2359  0.0428
  495EMC     O3 6671   4.016   0.033   3.493  0.2831 -0.1361 -0.1567
  495EMC     H1 6672   4.246   4.334   3.444 -0.7567 -0.4381  2.2573
  495EMC     H2 6673   4.261   4.493   3.521 -0.9270  2.4490 -1.7243
  495EMC     H3 6674   4.357   4.460   3.386 -0.2557 -0.3310 -0.0601
  495EMC     C4 6675   4.172   0.358   3.275  0.5115 -0.8325 -0.2211
  495EMC     H4 6676   4.090   0.295   3.465  0.2619 -0.4327 -0.1861
  495EMC     H5 6677   3.977   0.323   3.351  0.4216  0.7084  0.5166
  495EMC     H6 6678   4.155   0.349   3.168  0.2708  0.1698 -0.2763
  495EMC     H7 6679   4.279   0.342   3.288  1.0481 -0.1847 -3.1614
  495EMC     H8 6680   4.149   0.462   3.299 -0.8362 -1.6133  2.2491
  496EMC     C1 6681   4.248   1.450   4.164 -0.7490  0.2125 -0.0169
  496EMC     C2 6682   4.101   1.162   3.864 -0.4183 -0.4746 -0.3790
  496EMC     C3 6683   4.116   1.379   3.989  0.4626 -0.0468  0.1351
  496EMC     O1 6684   4.145   1.368   4.119 -0.2243 -0.7550 -0.0702
  496EMC     O2 6685   4.114   1.240   3.988 -0.1727 -0.3750  0.2984
  496EMC     O3 6686   4.172   1.441   3.902 -0.5253 -0.2988  0.4696
  496EMC     H1 6687   4.198   1.537   4.205 -3.2945 -1.1649  0.0132
  496EMC     H2 6688   4.319   1.484   4.089  0.5393  1.0504  1.5338
  496EMC     H3 6689   4.301   1.408   4.250  0.7472  3.0551  0.5606
  496EMC     C4 6690   4.129   1.013   3.883 -0.7105 -0.4689  0.4715
  496EMC     H4 6691   4.167   1.209   3.791 -1.6868  2.0021 -0.0389
  496EMC     H5 6692   3.998   1.182   3.835 -0.4913  2.1188  1.3048
  496EMC     H6 6693   4.234   0.986   3.894  0.0213  1.1324 -1.8325
  496EMC     H7 6694   4.075   0.962   3.804 -3.2826  1.5389  0.7951
  496EMC     H8 6695   4.070   0.975   3.967  2.5453 -2.5797  2.0191
  497EMC     C1 6696   2.654   3.421   2.612 -0.0431  0.0668  0.3455
  497EMC     C2 6697   2.277   3.515   2.525 -0.2924  0.1762 -0.5308
  497EMC     C3 6698   2.501   3.505   2.454  0.3342  0.9080 -0.0022
  497EMC     O1 6699   2.550   3.398   2.522  0.4698 -0.2738 -0.8398
  497EMC     O2 6700   2.389   3.443   2.464  0.0421 -0.9656 -0.0440
  497EMC     O3 6701   2.521   3.625   2.475  0.0006 -0.0928 -0.4824
  497EMC     H1 6702   2.745   3.441   2.555 -0.7145 -0.4698 -0.9741
  497EMC     H2 6703   2.673   3.330   2.669 -1.3347 -1.1555 -1.0713
  497EMC     H3 6704   2.628   3.499   2.684 -0.3422 -0.5128  0.8708
  497EMC     C4 6705   2.189   3.604   2.439 -0.2433  0.5420 -0.5040
  497EMC     H4 6706   2.294   3.570   2.617  0.0376 -0.4422 -0.2140
  497EMC     H5 6707   2.214   3.433   2.561 -1.2288  0.9208 -0.4374
  497EMC     H6 6708   2.098   3.641   2.486 -1.3310  1.2473 -3.0053
  497EMC     H7 6709   2.158   3.534   2.362  0.3246 -0.5377  0.2205
  497EMC     H8 6710   2.250   3.686   2.401  1.7374  0.4294  2.1199
  498EMC     C1 6711   0.481   3.982   3.310 -0.0410  0.1365 -0.7512
  498EMC     C2 6712   0.112   3.898   3.047  0.4946  0.0944  0.0185
  498EMC     C3 6713   0.300   3.952   3.165 -0.4648 -0.4429  0.3116
  498EMC     O1 6714   0.400   3.900   3.229 -0.1701  0.0543  0.0568
  498EMC     O2 6715   0.235   3.862   3.093  0.0372 -0.0443 -0.0078
  498EMC     O3 6716   0.257   4.068   3.184 -0.4862  0.9914  0.2554
  498EMC     H1 6717   0.440   4.082   3.325 -0.6782  0.1347 -2.3184
  498EMC     H2 6718   0.582   3.992   3.269  1.2702 -1.0887  1.9229
  498EMC     H3 6719   0.495   3.929   3.404 -0.6270 -0.2745 -0.8900
  498EMC     C4 6720   0.094   3.801   2.935 -0.0129  0.2842  0.7041
  498EMC     H4 6721   0.098   3.995   3.000  0.9949  0.0831 -0.1638
  498EMC     H5 6722   0.024   3.891   3.111 -1.2914  0.8416 -2.2254
  498EMC     H6 6723   0.185   3.815   2.876  0.9322  1.7484  2.4091
  498EMC     H7 6724   0.005   3.825   2.878 -0.7867  1.0679  2.1897
  498EMC     H8 6725   0.074   3.696   2.958 -3.3158  0.4981 -0.6200
  499EMC     C1 6726   3.687   2.412   2.298  0.0045  0.2651  0.1844
  499EMC     C2 6727   3.908   2.708   2.454 -0.2694 -0.2901 -0.0767
  499EMC     C3 6728   3.772   2.506   2.500 -0.5311 -0.6360 -0.4032
  499EMC     O1 6729   3.666   2.502   2.404  0.9462  0.2430  0.3316
  499EMC     O2 6730   3.795   2.643   2.502  1.0016  0.2838 -0.8529
  499EMC     O3 6731   3.852   2.412   2.520  0.4205 -0.1114 -0.7996
  499EMC     H1 6732   3.603   2.423   2.229 -0.2365  0.8074  0.5587
  499EMC     H2 6733   3.698   2.309   2.331  0.8430  0.9293  2.1109
  499EMC     H3 6734   3.775   2.438   2.238 -0.8862  0.1782 -1.2044
  499EMC     C4 6735   3.917   2.847   2.508  0.5020  0.0731  0.2374
  499EMC     H4 6736   3.898   2.704   2.346 -3.0081 -1.5883  0.1419
  499EMC     H5 6737   3.996   2.650   2.483 -0.7011 -1.9949 -1.9431
  499EMC     H6 6738   3.961   2.847   2.608  0.0269  0.5733  0.4505
  499EMC     H7 6739   3.826   2.898   2.476  1.9416  0.6806 -3.3065
  499EMC     H8 6740   3.997   2.900   2.457 -0.8634  1.3609 -0.6690
  500EMC     C1 6741   1.824   3.753   1.847 -0.7852  0.3363  0.5743
  500EMC     C2 6742   2.091   3.724   1.538 -0.1694  0.2219  0.5851
  500EMC     C3 6743   1.952   3.619   1.694  0.4356  0.0044 -0.0433
  500EMC     O1 6744   1.945   3.676   1.813 -0.4168 -0.5737  0.7439
  500EMC     O2 6745   2.073   3.677   1.670 -0.1355 -0.2060 -0.2071
  500EMC     O3 6746   1.856   3.608   1.619 -0.1462  0.3624  0.3310
  500EMC     H1 6747   1.807   3.814   1.758  4.2628 -2.0941 -2.5630
  500EMC     H2 6748   1.838   3.816   1.934 -1.4241  2.6540 -0.9256
  500EMC     H3 6749   1.746   3.682   1.874 -0.5335 -0.2213 -0.1051
  500EMC     C4 6750   2.228   3.797   1.535 -0.2168  0.1395  0.7055
  500EMC     H4 6751   2.015   3.789   1.496 -0.1043  0.6047  1.0574
  500EMC     H5 6752   2.098   3.638   1.470 -0.6234  0.9047 -0.3436
  500EMC     H6 6753   2.308   3.724   1.544 -0.2274  0.2659  2.0745
  500EMC     H7 6754   2.227   3.871   1.616  0.5282 -2.4321  3.2361
  500EMC     H8 6755   2.244   3.841   1.437 -2.7600 -0.2557  0.0351
  501EMC     C1 6756   4.056   1.119   1.296  0.3507  1.0380  0.1083
  501EMC     C2 6757   4.296   1.438   1.387  0.0026 -0.5292 -0.0769
  501EMC     C3 6758   4.224   1.217   1.422  0.5369  0.1379  0.1779
  501EMC     O1 6759   4.094   1.224   1.383  0.4251 -0.4471 -0.6000
  501EMC     O2 6760   4.199   1.346   1.419  0.0417  0.4877 -0.0859
  501EMC     O3 6761   4.312   1.151   1.366  0.5484 -0.4415 -0.5143
  501EMC     H1 6762   4.085   1.123   1.191  0.3347  0.9713  0.1016
  501EMC     H2 6763   3.948   1.115   1.290  0.3713 -0.2730  0.3773
  501EMC     H3 6764   4.096   1.024   1.331  1.6585  1.7340  0.6083
  501EMC     C4 6765   4.289   1.480   1.239 -0.4884  0.7023 -0.0707
  501EMC     H4 6766   4.392   1.403   1.423 -0.8937 -2.2158  0.8090
  501EMC     H5 6767   4.258   1.527   1.438 -0.8564 -0.0072 -1.5488
  501EMC     H6 6768   4.191   1.512   1.203 -0.7770 -0.2428 -0.1410
  501EMC     H7 6769   4.328   1.401   1.175 -0.5741 -0.4520  1.2462
  501EMC     H8 6770   4.355   1.567   1.236  0.1432  0.2988  1.3714
  502EMC     C1 6771   0.684   1.363   1.974 -0.5144 -0.4375  0.5787
  502EMC     C2 6772   0.444   1.049   2.098  0.2786  0.8984  0.4317
  502EMC     C3 6773   0.533   1.269   2.126 -1.1380  0.3546 -0.3051
  502EMC     O1 6774   0.555   1.330   2.017 -0.2749 -0.3445  0.3980
  502EMC     O2 6775   0.440   1.194   2.075  0.6575 -0.1705  0.7581
  502EMC     O3 6776   0.619   1.227   2.202 -0.0660  0.3290  0.4729
  502EMC     H1 6777   0.734   1.427   2.046  0.2979 -0.2303 -0.1457
  502EMC     H2 6778   0.673   1.420   1.882 -1.0720  1.2014  1.6117
  502EMC     H3 6779   0.747   1.274   1.966  0.7738  0.5912 -2.0427
  502EMC     C4 6780   0.380   0.992   2.221 -0.3874 -0.2149 -0.2466
  502EMC     H4 6781   0.543   1.007   2.084 -1.2656 -2.3777 -1.6151
  502EMC     H5 6782   0.388   0.993   2.024  1.0536 -1.6786  1.6985
  502EMC     H6 6783   0.285   1.041   2.246 -0.7990 -1.4395  0.7027
  502EMC     H7 6784   0.439   1.002   2.311  0.1778 -1.8592 -0.3952
  502EMC     H8 6785   0.355   0.886   2.212  1.6971 -0.9520  1.6936
  503EMC     C1 6786   4.333   1.950   2.058 -1.3016 -0.0865 -0.3294
  503EMC     C2 6787   4.454   2.265   2.284 -0.1031 -0.3744  0.2161
  503EMC     C3 6788   0.005   2.056   2.176 -1.1683 -0.2415 -0.0935
  503EMC     O1 6789   4.415   2.061   2.079 -0.0515  0.5253  0.1895
  503EMC     O2 6790   4.475   2.182   2.167 -0.2437  0.4433 -0.5228
  503EMC     O3 6791   0.008   1.983   2.275 -0.7419  0.5443 -0.0549
  503EMC     H1 6792   4.302   1.954   1.953  0.0961  1.6295 -0.7202
  503EMC     H2 6793   4.250   1.951   2.128 -1.0257 -0.2372  0.0062
  503EMC     H3 6794   4.393   1.861   2.079  0.0780  1.3686  2.3552
  503EMC     C4 6795   4.466   2.410   2.246  0.9794 -0.7857 -0.0730
  503EMC     H4 6796   0.017   2.242   2.362 -1.0012  0.2806  1.2856
  503EMC     H5 6797   4.357   2.239   2.327 -0.6532 -2.1566 -1.8932
  503EMC     H6 6798   4.392   2.432   2.169  2.7059 -1.5864 -2.0505
  503EMC     H7 6799   0.054   2.428   2.202  1.0932  0.2184  0.5518
  503EMC     H8 6800   4.465   2.474   2.334 -0.5319  0.8912 -1.2394
  504EMC     C1 6801   2.027   3.920   2.496 -0.2732 -0.0602 -0.1479
  504EMC     C2 6802   1.948   4.291   2.692  0.0648 -0.8308 -0.1839
  504EMC     C3 6803   2.040   4.066   2.689 -0.1643  0.5322 -0.0424
  504EMC     O1 6804   2.094   4.016   2.578  0.7602  0.0023 -1.2886
  504EMC     O2 6805   2.059   4.209   2.669  0.4596 -0.0285  0.7835
  504EMC     O3 6806   1.950   4.013   2.752  0.3806  0.2957 -0.5386
  504EMC     H1 6807   2.099   3.865   2.435  0.1570  0.4675 -0.1236
  504EMC     H2 6808   1.946   3.963   2.437 -0.5613  1.1926  1.1081
  504EMC     H3 6809   1.977   3.842   2.555  0.8097 -2.8258 -2.6151
  504EMC     C4 6810   1.988   4.439   2.676  0.5454 -0.2351 -0.3377
  504EMC     H4 6811   1.899   4.266   2.787  2.1136 -1.3948  0.7926
  504EMC     H5 6812   1.876   4.276   2.612 -0.5769 -0.4715  0.3139
  504EMC     H6 6813   2.049   4.471   2.760 -1.5747 -1.0841  1.5966
  504EMC     H7 6814   1.895   4.494   2.687  1.2458  0.5525  2.3649
  504EMC     H8 6815   2.030   4.453   2.576  0.0536 -0.1900 -0.5380
  505EMC     C1 6816   2.625   4.206   2.659  0.3955  0.4534 -0.1831
  505EMC     C2 6817   2.422   4.055   2.359  0.1587 -0.8147 -0.2118
  505EMC     C3 6818   2.405   4.147   2.575 -0.1488  0.5448  0.2023
  505EMC     O1 6819   2.528   4.110   2.625 -0.4633 -0.4584  0.8365
  505EMC     O2 6820   2.446   4.049   2.494  0.3728 -0.1016 -0.0586
  505EMC     O3 6821   2.397   4.256   2.533 -0.0550  0.6787  0.1187
  505EMC     H1 6822   2.667   4.245   2.567 -0.3531  0.5784 -0.4761
  505EMC     H2 6823   2.703   4.153   2.715  0.1950 -0.8977 -1.1254
  505EMC     H3 6824   2.577   4.273   2.730  0.6014  1.1529 -0.6963
  505EMC     C4 6825   2.382   3.920   2.315  0.3631  0.1627 -0.2650
  505EMC     H4 6826   2.515   4.078   2.307  0.3940 -0.8811  0.1744
  505EMC     H5 6827   2.338   4.115   2.325 -0.3730 -2.5361 -2.1463
  505EMC     H6 6828   2.452   3.837   2.323 -3.2007 -3.1678 -0.2220
  505EMC     H7 6829   2.375   3.925   2.207  2.0096  0.5782 -0.3770
  505EMC     H8 6830   2.285   3.894   2.359  0.2798  1.2870  0.2704
  506EMC     C1 6831   3.099   1.486   2.774  0.7318  0.7453 -0.2547
  506EMC     C2 6832   2.909   1.382   2.407  0.2473 -0.1025  0.3615
  506EMC     C3 6833   2.992   1.334   2.622 -0.3139  0.1992 -0.1809
  506EMC     O1 6834   2.982   1.419   2.726  0.2446 -0.0836  0.3961
  506EMC     O2 6835   2.895   1.378   2.548  0.4411  0.1701  0.4283
  506EMC     O3 6836   3.101   1.288   2.584 -0.1231 -0.3533  0.0605
  506EMC     H1 6837   3.160   1.410   2.823  0.9635 -1.0235 -3.0759
  506EMC     H2 6838   3.072   1.556   2.853  1.8998 -1.4456  2.2485
  506EMC     H3 6839   3.160   1.534   2.698 -0.4298  0.2369 -1.5555
  506EMC     C4 6840   2.778   1.421   2.331  0.5264  0.3421  0.0815
  506EMC     H4 6841   2.940   1.283   2.373  0.5533  0.1265 -0.0399
  506EMC     H5 6842   2.999   1.435   2.376  1.0571 -1.8646 -0.4840
  506EMC     H6 6843   2.724   1.511   2.361 -0.7538 -0.6339  0.7880
  506EMC     H7 6844   2.717   1.333   2.345 -0.6666  1.4006  1.9560
  506EMC     H8 6845   2.789   1.437   2.224  0.1281 -0.0226 -0.0138
  507EMC     C1 6846   0.029   0.944   2.927  0.2805  0.3231  0.6104
  507EMC     C2 6847   0.175   1.115   3.246 -0.3422 -0.9938  0.9758
  507EMC     C3 6848   0.095   1.149   3.030 -0.2647  0.0614  0.3439
  507EMC     O1 6849   0.125   1.039   2.950  0.5848 -0.2897  0.0503
  507EMC     O2 6850   0.198   1.121   3.108 -0.2469 -0.0038  0.0656
  507EMC     O3 6851   4.493   1.164   3.076 -0.9877  0.1355  0.6198
  507EMC     H1 6852   4.476   0.928   3.015 -0.0779  0.4352  0.3772
  507EMC     H2 6853   0.074   0.850   2.895 -4.4143 -1.3895 -1.9350
  507EMC     H3 6854   4.476   0.971   2.842  2.5880 -0.8308 -1.5956
  507EMC     C4 6855   0.320   1.120   3.314  0.3506 -0.4423 -0.0866
  507EMC     H4 6856   0.121   1.024   3.273 -0.7986 -1.4512 -1.3022
  507EMC     H5 6857   0.115   1.195   3.287  0.0453 -1.2797  2.1311
  507EMC     H6 6858   0.376   1.031   3.285 -2.0863 -2.0148 -0.2074
  507EMC     H7 6859   0.318   1.113   3.423 -0.7258 -2.1686 -0.1743
  507EMC     H8 6860   0.380   1.209   3.295  1.7311 -1.3677 -0.2549
  508EMC     C1 6861   4.341   2.324   1.871  0.7982  0.0430  0.4536
  508EMC     C2 6862   4.040   2.251   1.541 -0.2700  0.1149 -0.1296
  508EMC     C3 6863   4.223   2.226   1.688 -0.3464 -0.6071  0.5298
  508EMC     O1 6864   4.235   2.241   1.816  0.5226  0.1392 -0.1270
  508EMC     O2 6865   4.093   2.224   1.669 -0.2796 -1.3640 -0.3356
  508EMC     O3 6866   4.309   2.266   1.607  0.0191 -0.0894 -0.8485
  508EMC     H1 6867   4.356   2.315   1.978 -2.1349  0.9196  1.0034
  508EMC     H2 6868   4.313   2.427   1.850  0.7170  0.0596  0.6452
  508EMC     H3 6869   4.435   2.289   1.827  0.7947  0.2440  0.2844
  508EMC     C4 6870   3.910   2.161   1.523 -0.4031 -0.1781 -0.0996
  508EMC     H4 6871   4.108   2.227   1.459  0.9465 -1.3088  1.2121
  508EMC     H5 6872   4.007   2.353   1.525  1.1311  0.2568 -2.5108
  508EMC     H6 6873   3.829   2.176   1.594 -0.7543 -0.4735 -0.4291
  508EMC     H7 6874   3.939   2.057   1.541 -1.5686 -0.3148  1.1182
  508EMC     H8 6875   3.869   2.173   1.423  0.9928  2.6852 -0.4369
  509EMC     C1 6876   1.943   3.850   4.267 -0.1270  0.2322 -0.0684
  509EMC     C2 6877   1.883   4.254   4.278  0.1688 -0.3194 -0.6362
  509EMC     C3 6878   1.819   4.037   4.211  1.0259  0.9593 -0.1829
  509EMC     O1 6879   1.912   3.961   4.187 -0.1175  0.1055  0.0003
  509EMC     O2 6880   1.907   4.135   4.199 -0.3697  0.7614 -0.4378
  509EMC     O3 6881   1.735   4.015   4.296  0.1074 -0.4429 -0.4412
  509EMC     H1 6882   1.921   3.876   4.371  0.0933  0.5850 -0.1074
  509EMC     H2 6883   2.047   3.822   4.251 -0.0783  1.5133 -2.6273
  509EMC     H3 6884   1.875   3.766   4.254  0.8045 -0.5518  0.0627
  509EMC     C4 6885   1.964   4.369   4.222 -0.4416  0.5064  0.4427
  509EMC     H4 6886   1.910   4.257   4.384  1.6334  0.2447 -1.0114
  509EMC     H5 6887   1.776   4.276   4.274  0.5099  1.8188  0.5614
  509EMC     H6 6888   1.922   4.469   4.230 -1.8943 -0.0455  0.0404
  509EMC     H7 6889   1.977   4.338   4.118 -3.1021  0.2811  0.0929
  509EMC     H8 6890   2.065   4.359   4.262  0.1315 -1.5402 -1.3406
  510EMC     C1 6891   1.933   2.503   0.656  0.3117 -0.1155  0.0900
  510EMC     C2 6892   2.112   2.617   1.041  0.4590 -0.6472  0.6394
  510EMC     C3 6893   2.017   2.648   0.831  0.6445 -0.0365  0.6223
  510EMC     O1 6894   1.923   2.555   0.787  0.0870  0.2826 -0.5388
  510EMC     O2 6895   2.001   2.614   0.955  0.2191  0.6512  0.3468
  510EMC     O3 6896   2.121   2.665   0.769 -0.2243  0.2154 -0.8362
  510EMC     H1 6897   1.959   2.585   0.589  1.0512 -1.7646 -1.7267
  510EMC     H2 6898   1.844   2.453   0.616  0.5419  0.8616 -1.7714
  510EMC     H3 6899   2.014   2.431   0.643  2.2904  2.1441 -0.7578
  510EMC     C4 6900   2.097   2.529   1.161  0.1291 -0.1394  0.0421
  510EMC     H4 6901   2.132   2.723   1.059 -0.1099 -0.0650 -1.7639
  510EMC     H5 6902   2.198   2.582   0.985  0.5593  2.0378 -1.0463
  510EMC     H6 6903   2.194   2.528   1.212  0.2125 -2.3076 -0.0949
  510EMC     H7 6904   2.092   2.428   1.121  2.1234 -0.1651 -0.2570
  510EMC     H8 6905   2.009   2.553   1.221  1.2327  2.2755  0.8465
  511EMC     C1 6906   1.757   1.958   4.238 -0.4460 -0.4885  0.4083
  511EMC     C2 6907   1.865   1.686   4.468  0.2669 -0.6586 -1.2017
  511EMC     C3 6908   1.700   1.744   4.310 -0.2427 -0.1632  0.1841
  511EMC     O1 6909   1.767   1.821   4.221  0.4970  0.1540 -0.3888
  511EMC     O2 6910   1.811   1.671   4.340 -0.0934 -0.3336  0.3432
  511EMC     O3 6911   1.621   1.791   4.397  0.1427 -0.3278  0.4835
  511EMC     H1 6912   1.782   1.989   4.339  0.8274  1.2955 -0.3974
  511EMC     H2 6913   1.654   1.978   4.208 -0.8354  2.4357  3.1782
  511EMC     H3 6914   1.840   2.000   4.181 -2.6057 -0.5888 -3.1402
  511EMC     C4 6915   1.980   1.589   4.498 -0.1346 -0.5655 -0.6292
  511EMC     H4 6916   1.791   1.677   0.036  1.2409 -0.6282 -0.2511
  511EMC     H5 6917   1.914   1.783   4.475  0.9580 -1.1285  1.2926
  511EMC     H6 6918   2.047   1.560   4.417  2.2972  0.6615  0.8379
  511EMC     H7 6919   1.932   1.499   0.028 -1.0582 -0.2039 -0.9071
  511EMC     H8 6920   2.036   1.632   0.071 -1.2679  1.1349 -0.6885
  512EMC     C1 6921   0.208   2.465   4.108  0.4532  0.5121  0.3711
  512EMC     C2 6922   4.413   2.654   4.158 -0.1459  0.7527 -0.9334
  512EMC     C3 6923   0.056   2.600   3.980  0.0922  0.8110 -0.3070
  512EMC     O1 6924   0.157   2.589   4.053  0.2753 -0.5201 -0.0078
  512EMC     O2 6925   0.024   2.661   4.098 -0.0726 -0.6740 -0.1637
  512EMC     O3 6926   4.508   2.495   3.942 -0.0021 -0.3184 -0.0949
  512EMC     H1 6927   0.228   2.391   4.031  0.0535  1.1029 -0.3147
  512EMC     H2 6928   0.138   2.419   4.177 -1.0375  2.2504  0.0913
  512EMC     H3 6929   0.302   2.472   4.165  0.9139  0.3247 -0.3553
  512EMC     C4 6930   4.410   2.700   4.303 -0.0745 -0.3990  0.8840
  512EMC     H4 6931   4.397   2.547   4.164  1.3570  0.5671  2.5397
  512EMC     H5 6932   4.334   2.685   4.089 -2.8717 -1.3698  0.9915
  512EMC     H6 6933   4.361   2.616   4.352 -1.0677 -0.0912  0.4314
  512EMC     H7 6934   4.375   2.801   4.325  0.0408 -0.2976  0.6033
  512EMC     H8 6935   0.004   2.701   4.337 -0.4089 -1.5766  2.0385
  513EMC     C1 6936   2.790   0.109   4.160  0.0141  0.3448 -0.0272
  513EMC     C2 6937   2.703   0.512   4.393  0.1945  0.2230 -0.1074
  513EMC     C3 6938   2.796   0.315   4.287  0.1330  0.4642 -0.2124
  513EMC     O1 6939   2.742   0.196   4.268 -0.1376  0.0101 -0.4677
  513EMC     O2 6940   2.738   0.371   4.390  0.3678  0.1960 -0.3104
  513EMC     O3 6941   2.870   0.370   4.209  0.1454 -0.2432 -0.5450
  513EMC     H1 6942   2.855   0.029   4.195  2.5140  1.4044 -1.9315
  513EMC     H2 6943   2.846   0.159   4.081  0.5999 -0.5946 -0.2209
  513EMC     H3 6944   2.700   0.069   4.114  0.1151 -1.3541  1.1195
  513EMC     C4 6945   2.563   0.526   4.441  0.0748  0.6666  0.4993
  513EMC     H4 6946   2.733   0.559   4.300  1.3343 -1.0537 -0.4088
  513EMC     H5 6947   2.753   0.565   4.474 -2.8374  0.3600  1.8404
  513EMC     H6 6948   2.493   0.498   4.363  0.7620 -0.4154  0.2548
  513EMC     H7 6949   2.542   0.632   4.459  0.7394  0.8122  0.4549
  513EMC     H8 6950   2.547   0.480   0.028  1.5390  1.0419  0.9554
  514EMC     C1 6951   1.510   2.856   1.089 -0.1355  0.5014  0.0236
  514EMC     C2 6952   1.334   3.174   1.230  0.1031 -0.4925 -0.4410
  514EMC     C3 6953   1.394   3.059   1.034  0.4505 -0.1131 -0.2912
  514EMC     O1 6954   1.386   2.923   1.072  0.8526 -0.3910  0.2881
  514EMC     O2 6955   1.314   3.066   1.143  0.2766 -0.3666 -0.1351
  514EMC     O3 6956   1.497   3.122   1.020 -0.2146  0.0539 -0.2673
  514EMC     H1 6957   1.533   2.776   1.019 -0.0921  0.3374  0.2264
  514EMC     H2 6958   1.507   2.805   1.185  1.6013  0.0440 -0.1372
  514EMC     H3 6959   1.595   2.920   1.112 -0.5195  0.4766  1.6114
  514EMC     C4 6960   1.273   3.157   1.364 -0.1017 -0.4122  0.3409
  514EMC     H4 6961   1.293   3.263   1.181 -0.9219 -1.2111 -0.9053
  514EMC     H5 6962   1.442   3.186   1.244 -0.1169  0.7240  0.4075
  514EMC     H6 6963   1.172   3.124   1.341  0.0945 -0.0866 -1.0671
  514EMC     H7 6964   1.272   3.249   1.422 -1.2203 -1.2016  1.6364
  514EMC     H8 6965   1.310   3.069   1.418  2.0016 -0.3598 -0.8935
  515EMC     C1 6966   0.166   1.417   1.480 -0.2668  0.3098  0.3394
  515EMC     C2 6967   0.242   1.822   1.559 -0.4462 -0.1991 -1.2626
  515EMC     C3 6968   0.138   1.653   1.430  0.4968 -0.4603  1.0268
  515EMC     O1 6969   0.192   1.555   1.509  0.4131  0.0958  0.4752
  515EMC     O2 6970   0.125   1.758   1.504  0.0157 -0.4214  0.0375
  515EMC     O3 6971   0.079   1.640   1.325 -0.3649 -0.1780 -0.4359
  515EMC     H1 6972   0.247   1.353   1.513 -0.2004  0.2344  0.0378
  515EMC     H2 6973   0.153   1.405   1.372 -1.2721 -0.2188  0.5013
  515EMC     H3 6974   0.072   1.386   1.526 -0.8217  2.2105  0.5622
  515EMC     C4 6975   0.214   1.969   1.569 -0.7739 -0.0494 -0.9320
  515EMC     H4 6976   0.332   1.816   1.498  0.3152 -0.2393 -0.1729
  515EMC     H5 6977   0.284   1.786   1.653  3.0782  0.0770 -2.5858
  515EMC     H6 6978   0.136   2.000   1.639 -1.3259 -0.6072 -1.2883
  515EMC     H7 6979   0.168   2.011   1.479 -1.0058  0.9136 -0.3858
  515EMC     H8 6980   0.309   2.019   1.590  0.1800 -0.8264 -3.0941
  516EMC     C1 6981   1.420   1.308   3.748  0.4508 -0.1958  0.3631
  516EMC     C2 6982   1.040   1.475   3.586  0.4537 -0.1281 -0.2832
  516EMC     C3 6983   1.258   1.366   3.589  0.1456  0.2606 -0.8497
  516EMC     O1 6984   1.348   1.403   3.684 -0.0577  0.3783  0.7893
  516EMC     O2 6985   1.174   1.460   3.631  0.5251  0.6572  0.2110
  516EMC     O3 6986   1.243   1.252   3.550  0.0579  0.5501 -0.3236
  516EMC     H1 6987   1.410   1.326   3.855 -2.0900  0.9881 -0.0067
  516EMC     H2 6988   1.527   1.315   3.731  0.4508 -2.2494 -0.8947
  516EMC     H3 6989   1.387   1.205   3.734  0.5431 -0.0739 -0.8303
  516EMC     C4 6990   1.020   1.614   3.554  0.0195 -0.2680  0.4780
  516EMC     H4 6991   0.975   1.436   3.664 -1.3664  1.5867 -0.8466
  516EMC     H5 6992   1.013   1.409   3.503  2.1514 -2.3671  0.8086
  516EMC     H6 6993   0.929   1.625   3.494  0.0516  1.5645  0.7024
  516EMC     H7 6994   1.104   1.655   3.498 -1.5858  0.5790 -1.4596
  516EMC     H8 6995   1.004   1.669   3.647  0.3020  0.4134  0.1329
  517EMC     C1 6996   3.303   2.899   3.893  0.6174  0.2517  0.9646
  517EMC     C2 6997   3.535   2.945   4.147 -0.1248 -0.4940  0.5563
  517EMC     C3 6998   3.540   2.874   3.920  0.0253  0.7043  0.0710
  517EMC     O1 6999   3.430   2.958   3.894  0.2610 -0.1174  0.8629
  517EMC     O2 7000   3.552   2.979   4.010  0.6039  0.5477  0.2029
  517EMC     O3 7001   3.529   2.750   3.944  0.1767  0.2458  0.1590
  517EMC     H1 7002   3.258   2.924   3.989 -0.8750  3.2300 -0.3908
  517EMC     H2 7003   3.302   2.790   3.885  1.3791  0.2850  0.2897
  517EMC     H3 7004   3.228   2.935   3.823  0.3779 -1.7375  0.1083
  517EMC     C4 7005   3.587   3.058   4.243 -0.0451  0.1331  0.2320
  517EMC     H4 7006   3.593   2.856   4.171 -0.2096 -0.6951  0.0192
  517EMC     H5 7007   3.429   2.923   4.161 -0.2314 -0.0112  0.5201
  517EMC     H6 7008   3.695   3.068   4.232 -0.1536  0.6899 -0.3822
  517EMC     H7 7009   3.549   3.044   4.344  0.0552 -1.7590  0.0474
  517EMC     H8 7010   3.546   3.157   4.224  1.4683  0.8910  0.8497
  518EMC     C1 7011   0.754   1.242   2.701  0.9375  0.2021 -0.1896
  518EMC     C2 7012   0.457   1.022   2.633  0.2108 -0.1884  0.1015
  518EMC     C3 7013   0.664   1.029   2.754  0.4565 -0.0065  0.1779
  518EMC     O1 7014   0.683   1.158   2.786  0.1160 -0.5890 -0.4679
  518EMC     O2 7015   0.535   1.068   2.750  0.5692 -0.0859  0.5742
  518EMC     O3 7016   0.720   0.971   2.666  0.0032  0.6871  0.4629
  518EMC     H1 7017   0.852   1.202   2.677  1.0947 -1.4814  2.8000
  518EMC     H2 7018   0.790   1.341   2.731  1.2928  0.8576 -2.6113
  518EMC     H3 7019   0.694   1.258   2.611  0.2447  1.3560  0.4381
  518EMC     C4 7020   0.308   1.052   2.643 -0.4137  0.8637  0.6011
  518EMC     H4 7021   0.474   0.916   2.616  0.3350 -0.5397  2.1768
  518EMC     H5 7022   0.493   1.070   2.543 -1.1031  3.6350  1.4228
  518EMC     H6 7023   0.258   1.007   2.557 -0.9790  1.3658  0.6610
  518EMC     H7 7024   0.305   1.161   2.645 -0.0077  0.8650  2.4096
  518EMC     H8 7025   0.267   1.015   2.737  1.6334  1.3068  1.7236
  519EMC     C1 7026   2.774   2.940   3.869  0.6804 -0.2721 -0.3829
  519EMC     C2 7027   2.986   2.817   3.492 -0.5164  0.5702 -0.1593
  519EMC     C3 7028   2.876   2.803   3.695  0.0109 -0.1531 -0.0306
  519EMC     O1 7029   2.887   2.887   3.808  0.3482  0.2779 -0.0482
  519EMC     O2 7030   2.986   2.840   3.627  0.3727 -0.4327 -0.3581
  519EMC     O3 7031   2.773   2.777   3.636  0.1671 -0.4059 -0.0880
  519EMC     H1 7032   2.796   3.037   3.913 -1.0865 -1.7608  4.3830
  519EMC     H2 7033   2.736   2.883   3.954 -0.0541  3.2364  1.8302
  519EMC     H3 7034   2.692   2.950   3.798  0.7527 -2.6653 -0.9058
  519EMC     C4 7035   3.111   2.868   3.424 -0.2280  0.3889 -0.3586
  519EMC     H4 7036   2.899   2.862   3.444  0.3137 -0.3232 -2.7076
  519EMC     H5 7037   2.968   2.710   3.477  0.6251  0.5144 -1.2991
  519EMC     H6 7038   3.106   2.855   3.316 -1.3267 -3.2661 -0.0019
  519EMC     H7 7039   3.196   2.807   3.455  1.0875  0.8005 -2.9177
  519EMC     H8 7040   3.130   2.974   3.443  0.0177  0.3616 -0.4478
  520EMC     C1 7041   2.637   3.649   1.699 -0.3996 -0.2578 -0.3539
  520EMC     C2 7042   2.637   3.856   1.369 -0.0907 -0.2149 -0.7410
  520EMC     C3 7043   2.592   3.641   1.462  0.1017 -0.3680  0.5323
  520EMC     O1 7044   2.656   3.585   1.571  0.8114  0.5469 -0.5090
  520EMC     O2 7045   2.580   3.777   1.474  0.2643  0.5036 -0.1400
  520EMC     O3 7046   2.601   3.591   1.351  0.5915 -0.0832 -0.7006
  520EMC     H1 7047   2.692   3.604   1.782 -1.8885 -0.2815  0.6611
  520EMC     H2 7048   2.535   3.670   1.732  0.1764 -0.3761  1.6485
  520EMC     H3 7049   2.694   3.742   1.697 -0.5749 -0.0197  2.0838
  520EMC     C4 7050   2.608   4.007   1.405  0.4115 -0.7439 -0.4190
  520EMC     H4 7051   2.572   3.833   1.285  0.2398 -0.8242 -0.8388
  520EMC     H5 7052   2.739   3.824   1.349 -0.7743 -1.9680 -1.6604
  520EMC     H6 7053   2.592   4.012   1.513  0.2472 -0.0987 -0.4697
  520EMC     H7 7054   2.517   4.047   1.362  1.2407  1.3507 -0.3554
  520EMC     H8 7055   2.688   4.075   1.375 -0.4789 -0.1351 -1.4444
  521EMC     C1 7056   1.211   2.990   1.706 -0.5373 -0.1510  0.5131
  521EMC     C2 7057   1.343   2.630   1.864  0.3204  0.4623 -0.3530
  521EMC     C3 7058   1.172   2.805   1.840  0.3970 -0.2906  0.2840
  521EMC     O1 7059   1.183   2.853   1.721 -0.2456  0.4930  0.5676
  521EMC     O2 7060   1.242   2.700   1.785  0.3164 -0.9035  0.2411
  521EMC     O3 7061   1.203   2.871   1.941 -0.2162 -0.0618  0.9211
  521EMC     H1 7062   1.132   3.056   1.740  1.8220  3.0886  0.2213
  521EMC     H2 7063   1.230   3.017   1.602 -0.2456 -4.0162 -0.6077
  521EMC     H3 7064   1.300   3.010   1.767 -1.7319 -0.2148  2.3512
  521EMC     C4 7065   1.360   2.500   1.787 -0.2177 -0.4352  0.5487
  521EMC     H4 7066   1.309   2.612   1.966  0.8086  0.7999 -0.1297
  521EMC     H5 7067   1.435   2.686   1.881  0.5478 -0.0861  0.2493
  521EMC     H6 7068   1.409   2.511   1.690 -1.7114 -1.7082 -0.4025
  521EMC     H7 7069   1.261   2.454   1.775 -1.1767  1.3453  1.3283
  521EMC     H8 7070   1.417   2.426   1.843  2.7161  0.2722 -1.2986
  522EMC     C1 7071   0.560   2.975   0.329 -0.1497 -0.0186  0.1657
  522EMC     C2 7072   0.208   3.035   0.095  0.6690  0.0433 -0.6402
  522EMC     C3 7073   0.415   2.937   0.136 -0.6216 -0.1489 -0.6872
  522EMC     O1 7074   0.514   3.013   0.203  0.2381  0.6243 -0.0983
  522EMC     O2 7075   0.345   3.026   0.068  0.2127  0.3982  0.1610
  522EMC     O3 7076   0.359   2.836   0.189 -0.0442  0.4092  0.4999
  522EMC     H1 7077   0.587   2.870   0.326 -0.6203 -0.1269 -2.5791
  522EMC     H2 7078   0.486   2.998   0.406  0.9300  0.7348  1.0087
  522EMC     H3 7079   0.652   3.032   0.342 -0.0593  0.4965 -2.3299
  522EMC     C4 7080   0.155   3.177   0.063  0.3874  0.2613 -0.4494
  522EMC     H4 7081   0.180   3.007   0.197  0.1572  0.3677 -0.6887
  522EMC     H5 7082   0.161   2.960   0.032  1.1487 -1.5042  0.7536
  522EMC     H6 7083   0.175   3.194   4.468 -1.0945  1.3500 -0.5805
  522EMC     H7 7084   0.197   3.255   0.127 -2.0120 -1.8032  4.1475
  522EMC     H8 7085   0.051   3.203   0.079  0.4250  0.5472 -0.6621
  523EMC     C1 7086   1.822   1.797   0.303 -0.1298  0.2656  0.7128
  523EMC     C2 7087   1.908   2.179   0.113 -0.2211  0.5973  0.0020
  523EMC     C3 7088   1.757   2.003   0.192 -0.0387  0.3822  0.4765
  523EMC     O1 7089   1.847   1.932   0.262 -0.2275  0.0676  0.1648
  523EMC     O2 7090   1.818   2.068   0.093 -0.5048 -0.1990 -0.1621
  523EMC     O3 7091   1.650   1.958   0.164 -0.3482  0.2088 -0.3247
  523EMC     H1 7092   1.732   1.753   0.261 -1.2073  2.4645  0.5491
  523EMC     H2 7093   1.809   1.793   0.412  0.2071  1.3232  0.8014
  523EMC     H3 7094   1.909   1.736   0.280 -1.2888 -0.7660 -1.2382
  523EMC     C4 7095   1.824   2.307   0.124  0.0585  0.4822  0.2421
  523EMC     H4 7096   1.996   2.182   0.049  0.4159 -0.8537  0.7394
  523EMC     H5 7097   1.968   2.150   0.199  0.5456 -1.4553 -1.1429
  523EMC     H6 7098   1.754   2.325   0.042 -1.0226 -0.9774  0.8071
  523EMC     H7 7099   1.886   2.397   0.125  0.2891  0.3712  2.8821
  523EMC     H8 7100   1.775   2.313   0.221  0.7287  0.1590  0.6040
  524EMC     C1 7101   3.650   3.297   3.965  0.4227  0.0552 -0.0572
  524EMC     C2 7102   4.068   3.182   3.916 -0.2036 -0.4755  0.1284
  524EMC     C3 7103   3.837   3.150   3.965  0.0306  0.3374 -0.3269
  524EMC     O1 7104   3.766   3.248   4.030 -0.2199  0.6659  0.2247
  524EMC     O2 7105   3.963   3.182   4.005 -0.5049  0.2087  0.2730
  524EMC     O3 7106   3.797   3.099   3.864  0.1492 -0.5487  0.2391
  524EMC     H1 7107   3.661   3.282   3.857  0.4768  0.4919 -0.1150
  524EMC     H2 7108   3.630   3.403   3.984 -0.2464 -0.3468  1.5687
  524EMC     H3 7109   3.564   3.243   4.003  0.9794 -1.0697 -0.3720
  524EMC     C4 7110   4.184   3.282   3.954 -0.3932  0.1082  0.1476
  524EMC     H4 7111   4.028   3.216   3.820 -2.6778 -3.4175 -0.0582
  524EMC     H5 7112   4.104   3.079   3.921  1.1542  0.0485  1.7647
  524EMC     H6 7113   4.268   3.276   3.885  0.3633 -1.0479  1.1564
  524EMC     H7 7114   4.218   3.266   4.056 -2.7101 -1.8276  0.7071
  524EMC     H8 7115   4.140   3.381   3.938 -1.0868 -0.5789 -2.9707
  525EMC     C1 7116   0.727   2.594   1.885  0.2827 -0.9288 -0.3356
  525EMC     C2 7117   0.822   2.979   1.953 -0.3679 -0.6537 -0.9136
  525EMC     C3 7118   0.757   2.807   1.798  0.3925 -0.0076 -0.0273
  525EMC     O1 7119   0.809   2.701   1.840 -0.4734  0.1321 -1.1251
  525EMC     O2 7120   0.850   2.855   1.893  0.1115  0.0656  0.0860
  525EMC     O3 7121   0.638   2.835   1.803 -0.0716 -0.0202 -0.4990
  525EMC     H1 7122   0.624   2.600   1.851  0.5210 -0.3181 -0.9483
  525EMC     H2 7123   0.728   2.589   1.994 -0.4946  0.7466 -0.2305
  525EMC     H3 7124   0.776   2.503   1.850  1.4256 -0.4047 -0.1719
  525EMC     C4 7125   0.756   2.971   2.089  0.4170 -0.3383  0.3014
  525EMC     H4 7126   0.773   3.042   1.879  2.0226  1.2484 -1.0332
  525EMC     H5 7127   0.909   3.044   1.967 -2.3737  1.7643  1.3554
  525EMC     H6 7128   0.782   3.062   2.144 -1.6528 -0.4652  1.6219
  525EMC     H7 7129   0.794   2.892   2.153 -3.7101 -2.5704  0.3525
  525EMC     H8 7130   0.650   2.975   2.064  0.9638  2.1465 -2.1583
  526EMC     C1 7131   2.599   0.407   3.514 -0.2350 -0.1098  0.1373
  526EMC     C2 7132   2.266   0.516   3.349  0.4519  1.0356  0.4273
  526EMC     C3 7133   2.499   0.473   3.309  0.3506  0.7036  0.0037
  526EMC     O1 7134   2.542   0.512   3.429 -0.4895  0.5035  0.1762
  526EMC     O2 7135   2.394   0.559   3.334  0.2108 -0.3115 -0.3244
  526EMC     O3 7136   2.494   0.358   3.267  0.0704 -0.2332  0.3635
  526EMC     H1 7137   2.527   0.351   3.574 -2.5675  0.0315 -2.3199
  526EMC     H2 7138   2.674   0.449   3.581  0.9181 -2.4064  0.3825
  526EMC     H3 7139   2.663   0.340   3.457  0.5357 -0.3647  1.2720
  526EMC     C4 7140   2.159   0.621   3.322  0.0001  1.0173 -0.5560
  526EMC     H4 7141   2.259   0.487   3.454 -0.3075 -1.8024 -0.3195
  526EMC     H5 7142   2.243   0.427   3.291  0.2544  1.1463  0.3347
  526EMC     H6 7143   2.067   0.561   3.324  1.2714 -1.1120 -1.8157
  526EMC     H7 7144   2.165   0.628   3.213 -1.7178 -4.5190 -1.3573
  526EMC     H8 7145   2.150   0.710   3.383  3.4287  0.0796  1.5708
  527EMC     C1 7146   3.928   1.235   0.815 -0.1869 -0.3871 -0.1800
  527EMC     C2 7147   3.972   0.902   0.591 -0.2824  0.0829  1.0551
  527EMC     C3 7148   4.087   1.083   0.697 -0.3134 -0.5897  0.4288
  527EMC     O1 7149   4.010   1.200   0.702  0.4705  0.2722 -0.1111
  527EMC     O2 7150   4.000   1.043   0.600  0.7681 -1.2764  0.5534
  527EMC     O3 7151   4.131   1.022   0.793 -0.2435  0.0383  0.9313
  527EMC     H1 7152   3.866   1.321   0.789 -0.9055 -0.9310 -0.2950
  527EMC     H2 7153   3.992   1.261   0.899 -1.2918  1.3352  0.1735
  527EMC     H3 7154   3.865   1.150   0.841  1.5679 -1.1463  1.8443
  527EMC     C4 7155   3.887   0.871   0.467 -0.3639 -0.4316  0.8960
  527EMC     H4 7156   3.913   0.866   0.675 -2.3864  2.4407  0.7346
  527EMC     H5 7157   4.061   0.840   0.600  0.6273  1.2556  0.3611
  527EMC     H6 7158   3.870   0.763   0.470 -1.2860 -0.2762  1.5647
  527EMC     H7 7159   3.940   0.889   0.373 -1.3890 -0.8719  0.2175
  527EMC     H8 7160   3.790   0.920   0.460  0.5828  1.3955 -0.2717
  528EMC     C1 7161   0.638   3.952   2.411  0.0697 -0.6733 -0.3159
  528EMC     C2 7162   0.751   4.296   2.535  0.2691 -0.3684  0.3096
  528EMC     C3 7163   0.804   4.062   2.550  0.2367 -1.4093  0.8492
  528EMC     O1 7164   0.675   4.013   2.537 -0.8323  0.6247 -0.8280
  528EMC     O2 7165   0.731   4.170   2.594  0.3979  0.0784 -0.4644
  528EMC     O3 7166   0.882   4.060   2.456 -0.1696 -0.1331 -0.0328
  528EMC     H1 7167   0.630   3.843   2.415 -2.8687 -0.5650 -0.9678
  528EMC     H2 7168   0.701   3.984   2.327  0.9306  1.6717  1.1287
  528EMC     H3 7169   0.537   3.985   2.386 -0.2462  2.3013  3.9106
  528EMC     C4 7170   0.643   4.395   2.572 -0.1142 -0.1057  0.2858
  528EMC     H4 7171   0.726   4.280   2.430 -2.6860 -1.0045  0.9967
  528EMC     H5 7172   0.855   4.328   2.529  0.3445 -0.7174 -0.3678
  528EMC     H6 7173   0.641   4.487   2.514 -0.5537  0.5609  1.3485
  528EMC     H7 7174   0.651   4.423   2.677  1.0589 -0.4825  0.3203
  528EMC     H8 7175   0.544   4.355   2.552  0.7353 -1.6802 -1.0415
  529EMC     C1 7176   3.840   3.721   3.748 -0.4552  0.8933  0.0425
  529EMC     C2 7177   3.894   3.714   3.423 -0.0698  0.0376  0.7831
  529EMC     C3 7178   3.853   3.542   3.587 -0.2888 -0.2703 -0.6202
  529EMC     O1 7179   3.783   3.628   3.659  0.3144 -0.7172 -0.3032
  529EMC     O2 7180   3.807   3.629   3.499 -0.3941  0.5404 -0.6530
  529EMC     O3 7181   3.972   3.528   3.602 -0.0005  0.8312 -0.0692
  529EMC     H1 7182   3.930   3.768   3.709 -0.0145 -0.9059 -1.2042
  529EMC     H2 7183   3.875   3.663   3.834 -1.4134  0.6842  0.3068
  529EMC     H3 7184   3.761   3.790   3.778 -0.1205  1.3712 -0.1639
  529EMC     C4 7185   3.811   3.803   3.324  0.2633 -0.2126 -0.5305
  529EMC     H4 7186   3.962   3.656   3.361  1.3809 -0.2981  2.6257
  529EMC     H5 7187   3.964   3.768   3.486 -0.3760 -1.2778  2.3239
  529EMC     H6 7188   3.738   3.858   3.384 -0.2501 -0.8436 -0.5590
  529EMC     H7 7189   3.754   3.732   3.264 -3.0553  0.5544  1.4516
  529EMC     H8 7190   3.863   3.875   3.262  0.9684 -0.2671 -0.0130
  530EMC     C1 7191   3.120   1.285   4.092 -0.2061  0.5622 -0.7065
  530EMC     C2 7192   3.081   0.970   4.279  0.0039 -0.0039 -0.2587
  530EMC     C3 7193   3.251   1.098   4.172  0.7004  0.0641  0.7021
  530EMC     O1 7194   3.198   1.215   4.187  0.6781 -0.2229 -0.0590
  530EMC     O2 7195   3.173   1.080   4.277  0.1623  0.2080 -0.1558
  530EMC     O3 7196   3.242   1.022   4.071  0.0782  0.3506  0.2672
  530EMC     H1 7197   3.102   1.386   4.129 -1.8273 -0.1180  0.4500
  530EMC     H2 7198   3.024   1.234   4.096  0.4144 -0.5493  0.4107
  530EMC     H3 7199   3.154   1.284   3.988  0.4183  1.6728 -0.5290
  530EMC     C4 7200   3.017   0.974   4.420  0.1181  0.3573  0.9473
  530EMC     H4 7201   3.138   0.877   4.270  0.9393  0.5076  0.1925
  530EMC     H5 7202   3.017   0.961   4.191  0.4606 -2.1513 -0.4205
  530EMC     H6 7203   3.102   0.988   4.488  1.5083  0.8939 -0.8253
  530EMC     H7 7204   2.969   0.879   4.444  0.2719  0.0721  0.1411
  530EMC     H8 7205   2.939   1.048   4.436 -1.9214 -1.8392  1.7025
  531EMC     C1 7206   4.234   0.884   1.021 -0.2046 -0.0302  0.1579
  531EMC     C2 7207   4.405   0.628   1.348  0.0459 -0.1224  0.4582
  531EMC     C3 7208   4.330   0.824   1.226 -0.6115  0.9938  0.1643
  531EMC     O1 7209   4.221   0.818   1.148  0.2554 -0.1845  0.2335
  531EMC     O2 7210   4.306   0.711   1.303 -0.7927  0.3681 -0.0671
  531EMC     O3 7211   4.441   0.859   1.194 -0.2447 -0.2720 -0.1441
  531EMC     H1 7212   4.169   0.972   1.027 -0.2034 -0.1261  2.2901
  531EMC     H2 7213   4.212   0.826   0.931  0.4072  1.5853 -1.0797
  531EMC     H3 7214   4.328   0.934   0.998 -0.3616  1.3227  2.2047
  531EMC     C4 7215   4.360   0.510   1.437 -1.2145 -0.6277  0.3113
  531EMC     H4 7216   4.488   0.684   1.392  0.6308  0.8537 -1.7581
  531EMC     H5 7217   4.453   0.588   1.258  1.9272 -0.9304  1.7615
  531EMC     H6 7218   4.296   0.442   1.381 -0.2349  0.2325 -1.9563
  531EMC     H7 7219   4.304   0.550   1.521 -0.8855  0.1752  0.1606
  531EMC     H8 7220   4.449   0.451   1.460  0.1896  1.8805  1.8839
  532EMC     C1 7221   1.586   2.937   3.296 -0.3487 -1.0126  0.0728
  532EMC     C2 7222   1.729   3.009   2.973  0.2428 -0.3136  0.2588
  532EMC     C3 7223   1.622   3.123   3.160  0.9007 -0.1656 -0.0744
  532EMC     O1 7224   1.668   3.046   3.248  0.6511 -0.2301 -0.3591
  532EMC     O2 7225   1.733   3.064   3.107 -0.2415 -0.2291 -0.2758
  532EMC     O3 7226   1.508   3.094   3.113 -0.3404 -0.0662  0.1875
  532EMC     H1 7227   1.508   2.977   3.361 -0.4210  1.2081 -1.2768
  532EMC     H2 7228   1.642   2.875   3.366 -0.1145 -0.3154  0.5065
  532EMC     H3 7229   1.552   2.885   3.206 -0.2830 -0.4242 -0.2942
  532EMC     C4 7230   1.811   2.884   2.977  0.5540 -0.1296  0.3697
  532EMC     H4 7231   1.783   3.068   2.899 -3.3674  0.6035 -1.9161
  532EMC     H5 7232   1.631   2.983   2.933  0.5012  1.5848 -1.8383
  532EMC     H6 7233   1.917   2.906   2.991  0.3225  1.5901 -0.2270
  532EMC     H7 7234   1.811   2.854   2.872  1.4308 -2.4565  0.9800
  532EMC     H8 7235   1.772   2.807   3.043  1.3358  0.0191  1.0193
  533EMC     C1 7236   3.946   1.731   3.056  0.9882  0.3852  0.1392
  533EMC     C2 7237   4.158   1.572   2.799  0.6746  0.5899 -0.3485
  533EMC     C3 7238   4.180   1.714   2.996  0.2359 -0.1120  0.3518
  533EMC     O1 7239   4.072   1.666   3.063 -0.8159 -0.6934  0.0538
  533EMC     O2 7240   4.157   1.593   2.941  0.5494  0.5576 -0.9206
  533EMC     O3 7241   4.163   1.813   2.925 -0.4214  0.2013  0.0852
  533EMC     H1 7242   3.911   1.728   2.952 -1.2628  2.0316  0.7673
  533EMC     H2 7243   3.952   1.835   3.087 -0.0737  1.0582 -1.7224
  533EMC     H3 7244   3.874   1.673   3.115  2.1481 -0.8810  0.3666
  533EMC     C4 7245   4.116   1.424   2.766  0.2396 -0.5297  0.5167
  533EMC     H4 7246   4.254   1.606   2.758  0.2570  3.0473  0.5029
  533EMC     H5 7247   4.073   1.633   2.770 -1.0915 -0.9021  1.3809
  533EMC     H6 7248   4.130   1.399   2.661  2.1044  2.7500 -0.1728
  533EMC     H7 7249   4.015   1.398   2.797 -0.6816  1.6520 -0.4259
  533EMC     H8 7250   4.191   1.353   2.799 -0.6156 -1.6486  0.0982
  534EMC     C1 7251   4.430   0.221   1.228 -0.8483 -0.4362  0.2078
  534EMC     C2 7252   0.017   4.485   1.591 -0.7584  0.1697  0.0944
  534EMC     C3 7253   4.384   0.062   1.404 -0.8127  0.6176  0.1239
  534EMC     O1 7254   4.422   0.090   1.276 -0.5319  0.2453  0.3855
  534EMC     O2 7255   4.488   4.490   1.450 -0.2031 -0.1271  0.0722
  534EMC     O3 7256   4.324   0.139   1.480 -0.5304 -0.1425 -0.7830
  534EMC     H1 7257   4.484   0.235   1.135  1.8980 -2.5433  1.3299
  534EMC     H2 7258   4.473   0.276   1.312  2.5997 -1.5396 -0.6624
  534EMC     H3 7259   4.334   0.266   1.202  0.1655  0.6000 -1.9820
  534EMC     C4 7260   0.141   0.064   1.614 -0.3309  0.1421  0.4932
  534EMC     H4 7261   0.035   4.381   1.620 -1.9204 -1.0211 -2.9625
  534EMC     H5 7262   4.450   0.024   1.649  0.7753  1.4013  1.1651
  534EMC     H6 7263   0.227   0.029   1.558  0.7659  0.7712  1.7498
  534EMC     H7 7264   0.170   0.041   1.716  0.2923 -2.3611 -0.1687
  534EMC     H8 7265   0.116   0.165   1.583 -0.2066 -0.1569 -0.6314
  535EMC     C1 7266   0.420   2.753   2.110  0.6619  0.1476  0.3095
  535EMC     C2 7267   0.050   2.749   1.939  0.2768  0.0813 -0.0756
  535EMC     C3 7268   0.284   2.759   1.918 -0.7873  1.1183  0.2066
  535EMC     O1 7269   0.378   2.817   1.988 -0.2056 -0.8788 -0.0254
  535EMC     O2 7270   0.173   2.756   2.003 -0.7066  0.6458  0.8270
  535EMC     O3 7271   0.283   2.767   1.790  0.0452  0.6575  0.2910
  535EMC     H1 7272   0.518   2.787   2.144  1.4527 -2.4452  0.8527
  535EMC     H2 7273   0.430   2.645   2.100  1.5768  0.2120  0.4235
  535EMC     H3 7274   0.353   2.777   2.193 -1.3490 -1.0698 -0.8669
  535EMC     C4 7275   4.456   2.782   2.043 -0.1923  0.2793 -0.1100
  535EMC     H4 7276   0.044   2.641   1.924  0.2623  0.0971 -0.1789
  535EMC     H5 7277   0.037   2.795   1.841 -0.0269 -0.3234 -0.2287
  535EMC     H6 7278   4.358   2.755   2.006  0.1231  0.7073 -1.2924
  535EMC     H7 7279   4.458   2.885   2.079 -0.0865 -0.2304  1.4551
  535EMC     H8 7280   4.458   2.716   2.130 -0.3466 -0.1801 -0.4502
  536EMC     C1 7281   3.064   1.874   0.516 -0.2307 -0.0933 -0.0243
  536EMC     C2 7282   2.847   1.766   0.814  0.0663  0.3168  0.0285
  536EMC     C3 7283   3.032   1.710   0.680  0.1315  0.4821  0.7892
  536EMC     O1 7284   3.001   1.755   0.566 -0.6698 -0.0199  0.0928
  536EMC     O2 7285   2.901   1.713   0.693  0.0229  0.2179 -0.0281
  536EMC     O3 7286   3.105   1.767   0.766  0.6173  0.3651  0.4523
  536EMC     H1 7287   3.166   1.891   0.550 -0.4635 -0.2316  0.7611
  536EMC     H2 7288   2.999   1.956   0.546  3.0692  2.3272  1.1753
  536EMC     H3 7289   3.070   1.864   0.408  0.1794 -0.6250  0.0414
  536EMC     C4 7290   2.695   1.767   0.800  0.7208  0.3939 -0.0111
  536EMC     H4 7291   2.871   1.869   0.839 -2.0307  1.5817 -2.6843
  536EMC     H5 7292   2.894   1.704   0.891  1.0196 -0.8474 -1.4317
  536EMC     H6 7293   2.648   1.670   0.787  0.8260  0.2939  0.3319
  536EMC     H7 7294   2.669   1.825   0.711  0.6355 -3.0463 -2.3970
  536EMC     H8 7295   2.641   1.812   0.884 -2.5245 -1.6980 -0.7978
  537EMC     C1 7296   3.489   2.055   4.135  0.1041 -0.5795 -0.0723
  537EMC     C2 7297   3.347   2.247   3.782  0.0717  0.7782 -0.2188
  537EMC     C3 7298   3.387   2.231   4.014 -0.1049  0.5334  0.2715
  537EMC     O1 7299   3.384   2.111   4.066 -0.1331 -0.2343  0.0789
  537EMC     O2 7300   3.310   2.189   3.912 -0.9100 -0.4120 -0.7303
  537EMC     O3 7301   3.483   2.300   4.003  0.3413 -0.1479 -0.9071
  537EMC     H1 7302   3.521   2.133   4.205 -1.6598  0.4929 -0.3845
  537EMC     H2 7303   3.567   2.038   4.062 -1.1624  0.1600 -1.6734
  537EMC     H3 7304   3.454   1.967   4.189 -2.3143  0.7560  0.7354
  537EMC     C4 7305   3.237   2.226   3.673 -0.0595  0.4994  0.3081
  537EMC     H4 7306   3.441   2.206   3.745  0.1057 -0.0581  0.7659
  537EMC     H5 7307   3.360   2.355   3.785  0.3858  0.7485 -0.4592
  537EMC     H6 7308   3.230   2.128   3.625 -2.1447  0.6220  0.2954
  537EMC     H7 7309   3.250   2.306   3.599 -0.7729  0.8461  0.5499
  537EMC     H8 7310   3.140   2.245   3.718  0.1345 -0.3941  1.1170
  538EMC     C1 7311   0.032   4.357   4.507 -0.2876 -0.0840  0.6693
  538EMC     C2 7312   4.509   4.105   0.260 -0.5282 -0.5751 -0.1073
  538EMC     C3 7313   4.457   4.128   0.023  0.1460  0.0938 -0.0195
  538EMC     O1 7314   4.430   4.260   0.008 -0.1564 -0.5650  0.2148
  538EMC     O2 7315   4.430   4.155   0.150  0.7787  0.3381 -0.5383
  538EMC     O3 7316   0.050   4.076   4.483  0.0017 -0.3668  0.4504
  538EMC     H1 7317   0.106   4.319   4.437  0.1060 -2.3350  2.1951
  538EMC     H2 7318   0.083   4.361   0.093  0.1997  2.1191  0.3671
  538EMC     H3 7319   0.006   4.452   4.460 -1.7334 -0.8665 -0.1877
  538EMC     C4 7320   4.443   4.141   0.390  0.5759  0.3241 -0.0761
  538EMC     H4 7321   0.100   4.146   0.258 -0.8216  0.1574 -0.9510
  538EMC     H5 7322   0.007   3.997   0.261  1.2496 -0.4890 -0.8035
  538EMC     H6 7323   4.508   4.103   0.470  0.1971 -1.6939 -0.6809
  538EMC     H7 7324   4.352   4.081   0.395  0.0173  0.6216 -3.9652
  538EMC     H8 7325   4.434   4.247   0.415  0.9560  0.2054  0.6193
  539EMC     C1 7326   3.263   1.669   4.074 -0.9700  0.1330  0.5132
  539EMC     C2 7327   3.031   1.766   4.413 -0.3796 -0.2919  0.4319
  539EMC     C3 7328   3.066   1.744   4.173 -0.7289 -0.0418 -1.0470
  539EMC     O1 7329   3.186   1.771   4.130  0.1388 -0.2341  0.4424
  539EMC     O2 7330   3.067   1.822   4.283 -0.2571  0.0340 -0.2964
  539EMC     O3 7331   3.015   1.634   4.166  0.1586 -0.0041 -0.6381
  539EMC     H1 7332   3.335   1.707   4.002 -1.4474 -2.3167 -1.3971
  539EMC     H2 7333   3.211   1.602   4.005 -0.2971  0.5730 -0.4408
  539EMC     H3 7334   3.315   1.599   4.140 -0.4573 -1.1814 -1.2175
  539EMC     C4 7335   3.065   1.853   0.014 -0.0565  0.0965 -0.0530
  539EMC     H4 7336   3.075   1.666   4.425 -0.4239 -0.2853  0.6573
  539EMC     H5 7337   2.924   1.754   4.402 -0.3215 -1.9459  1.2932
  539EMC     H6 7338   3.011   1.815   0.101 -1.0006  1.0054 -0.2112
  539EMC     H7 7339   3.035   1.958   0.009  2.1965  0.9352  1.8659
  539EMC     H8 7340   3.172   1.847   0.033  0.0244  0.8392 -0.2495
  540EMC     C1 7341   3.794   2.952   1.118 -0.2033 -0.7107  0.1219
  540EMC     C2 7342   4.163   3.143   1.266  0.4251  0.0100  0.1203
  540EMC     C3 7343   3.991   2.994   1.248 -0.0017 -0.1832  0.2629
  540EMC     O1 7344   3.876   3.043   1.195 -0.7491  0.1951 -0.4790
  540EMC     O2 7345   4.025   3.119   1.270 -0.4058  0.1219  0.1293
  540EMC     O3 7346   4.064   2.909   1.201 -0.2713  0.2129 -0.2965
  540EMC     H1 7347   3.738   2.877   1.175  0.5659 -0.4949  1.1990
  540EMC     H2 7348   3.840   2.896   1.037  2.7730 -0.0943  1.2578
  540EMC     H3 7349   3.722   3.015   1.066  1.6886  0.9012 -0.6326
  540EMC     C4 7350   4.186   3.287   1.317 -0.2069 -0.2065  0.2191
  540EMC     H4 7351   4.191   3.133   1.162 -0.3138 -1.2632  0.0247
  540EMC     H5 7352   4.214   3.068   1.326  0.0716 -1.1899 -1.0308
  540EMC     H6 7353   4.291   3.309   1.333 -0.6717  1.9819  0.5789
  540EMC     H7 7354   4.143   3.308   1.414 -2.0458  0.3101 -0.6569
  540EMC     H8 7355   4.137   3.363   1.255  1.2207  0.6923  0.1413
  541EMC     C1 7356   3.748   1.001   2.603  0.2352  0.2130  0.2335
  541EMC     C2 7357   3.552   0.631   2.725 -0.6233 -0.0897  0.0118
  541EMC     C3 7358   3.645   0.846   2.759 -0.8715 -0.5783 -0.7594
  541EMC     O1 7359   3.643   0.919   2.644  0.2193  0.3029 -0.0839
  541EMC     O2 7360   3.556   0.771   2.694 -0.3054 -0.0343 -0.5041
  541EMC     O3 7361   3.755   0.812   2.806 -0.2073 -0.3694 -0.0294
  541EMC     H1 7362   3.744   1.014   2.495  0.7704 -0.6502  0.0962
  541EMC     H2 7363   3.844   0.950   2.616  0.2562  0.1847 -0.0268
  541EMC     H3 7364   3.742   1.091   2.664 -1.0818 -0.0236  0.4831
  541EMC     C4 7365   3.440   0.571   2.642 -0.7369 -0.5807 -0.5122
  541EMC     H4 7366   3.535   0.610   2.831 -0.9151 -0.9410 -0.1976
  541EMC     H5 7367   3.647   0.590   2.691 -0.0994  0.6239  0.5724
  541EMC     H6 7368   3.472   0.549   2.540  2.8723  1.7527 -0.0459
  541EMC     H7 7369   3.352   0.636   2.642 -0.0703  0.3986  1.8341
  541EMC     H8 7370   3.409   0.480   2.693 -0.8977 -1.2771 -1.8026
  542EMC     C1 7371   0.784   2.122   2.823  0.5452 -0.4812  0.2436
  542EMC     C2 7372   0.763   2.578   2.715 -0.0466  0.0615  0.6126
  542EMC     C3 7373   0.773   2.343   2.730 -0.3167 -0.6358 -0.2383
  542EMC     O1 7374   0.839   2.249   2.786  0.0447 -0.8417  0.4065
  542EMC     O2 7375   0.840   2.458   2.724 -0.2052 -0.3178  0.0722
  542EMC     O3 7376   0.645   2.344   2.729  0.0893  0.1218  0.7005
  542EMC     H1 7377   0.713   2.146   2.902 -1.2026 -1.9466 -0.8250
  542EMC     H2 7378   0.863   2.054   2.855  0.2956 -0.3586  1.1483
  542EMC     H3 7379   0.737   2.075   2.737  1.0296  0.6858 -0.6883
  542EMC     C4 7380   0.834   2.692   2.676 -0.5115  0.1214  0.3400
  542EMC     H4 7381   0.712   2.580   2.811  2.1315  0.1571  1.8210
  542EMC     H5 7382   0.680   2.576   2.645  1.2551  1.5966 -1.0833
  542EMC     H6 7383   0.784   2.781   2.713  0.5981  0.7076  0.4898
  542EMC     H7 7384   0.852   2.693   2.569 -2.9469 -1.0916 -0.1436
  542EMC     H8 7385   0.926   2.712   2.731 -0.9808  1.4551  0.6768
  543EMC     C1 7386   1.159   0.720   3.177 -0.0313 -0.0649  0.7810
  543EMC     C2 7387   0.885   1.044   3.193 -0.7363 -0.0297 -0.0309
  543EMC     C3 7388   1.102   0.959   3.173 -0.3899 -0.2330  0.2102
  543EMC     O1 7389   1.111   0.834   3.105  0.0307  0.1636 -0.6608
  543EMC     O2 7390   0.992   0.998   3.110  0.0071  0.4075 -0.4344
  543EMC     O3 7391   1.120   0.970   3.298 -1.0939 -0.5330 -0.1880
  543EMC     H1 7392   1.267   0.714   3.184 -0.0772 -1.9927  0.3516
  543EMC     H2 7393   1.128   0.634   3.118 -1.2121  0.3572  0.7482
  543EMC     H3 7394   1.120   0.715   3.279 -0.8360  3.1931  0.7453
  543EMC     C4 7395   0.760   1.067   3.101  0.3301 -0.1490 -0.3314
  543EMC     H4 7396   0.908   1.141   3.237 -0.8464  0.8296 -1.7809
  543EMC     H5 7397   0.872   0.963   3.264  1.3777 -1.6705 -1.4037
  543EMC     H6 7398   0.732   0.977   3.046 -1.9368 -1.0675  2.0801
  543EMC     H7 7399   0.785   1.153   3.040 -0.6432  1.7691  1.8423
  543EMC     H8 7400   0.665   1.088   3.151  1.2233 -0.3148  1.5374
  544EMC     C1 7401   3.530   0.927   1.285  0.1714 -0.0141  0.1615
  544EMC     C2 7402   3.752   1.229   1.514  0.1611  0.0501 -0.1145
  544EMC     C3 7403   3.691   1.070   1.351  0.3123  0.2859  0.3767
  544EMC     O1 7404   3.571   1.060   1.303  0.4390  0.1690 -0.2957
  544EMC     O2 7405   3.671   1.184   1.412  0.5358 -0.1783 -0.0996
  544EMC     O3 7406   3.758   0.974   1.385 -0.1326  0.4638  0.4380
  544EMC     H1 7407   3.541   0.881   1.383 -2.5419  0.8915  1.0013
  544EMC     H2 7408   3.600   0.880   1.216 -1.3550 -0.3189 -1.2795
  544EMC     H3 7409   3.428   0.923   1.246  0.6018  0.7768 -1.1069
  544EMC     C4 7410   3.690   1.347   1.591 -0.0386 -0.5044  0.0377
  544EMC     H4 7411   3.840   1.263   1.461 -0.1797 -0.1406 -0.8172
  544EMC     H5 7412   3.780   1.147   1.581  1.6568 -1.8653 -2.8612
  544EMC     H6 7413   3.761   1.402   1.653 -1.1344  0.0657  0.8114
  544EMC     H7 7414   3.623   1.306   1.666 -1.6371 -0.0788 -1.1049
  544EMC     H8 7415   3.633   1.413   1.526  0.8687  0.4085  0.1486
  545EMC     C1 7416   0.891   3.422   3.068 -0.3124  0.2464 -0.2306
  545EMC     C2 7417   0.997   3.347   2.741  0.2574 -0.8042  0.3070
  545EMC     C3 7418   0.830   3.485   2.848  0.0023  0.1957  0.0882
  545EMC     O1 7419   0.822   3.396   2.943  0.0585 -0.1950 -0.2217
  545EMC     O2 7420   0.871   3.366   2.810  0.0596  0.0543  0.1963
  545EMC     O3 7421   0.890   3.588   2.842 -0.4170 -0.1021  0.1652
  545EMC     H1 7422   0.871   3.526   3.093  0.8165  0.2900  0.5671
  545EMC     H2 7423   0.997   3.411   3.048  0.0691 -1.7347  2.3356
  545EMC     H3 7424   0.866   3.358   3.153 -1.2771 -0.3577 -0.9512
  545EMC     C4 7425   1.015   3.202   2.676 -0.2373  0.9799 -0.6114
  545EMC     H4 7426   1.075   3.371   2.813  0.7714 -1.6508  0.0483
  545EMC     H5 7427   0.996   3.420   2.660  1.2251 -1.6057 -0.4604
  545EMC     H6 7428   0.923   3.166   2.630  0.1167 -0.6540 -0.1065
  545EMC     H7 7429   1.021   3.122   2.750 -4.4946  1.0560  0.0618
  545EMC     H8 7430   1.102   3.182   2.614  1.5169 -0.2534  2.0679
  546EMC     C1 7431   1.303   1.820   4.191 -0.8526  0.2803  0.1180
  546EMC     C2 7432   1.327   1.442   4.229 -0.5344 -0.9276 -0.3139
  546EMC     C3 7433   1.242   1.650   4.349  0.1287 -0.5857  0.1128
  546EMC     O1 7434   1.234   1.706   4.228  0.3298  0.6983  0.0332
  546EMC     O2 7435   1.238   1.551   4.249 -0.4836 -0.3044 -0.4834
  546EMC     O3 7436   1.333   1.679   4.426 -0.5819 -0.4962 -0.0696
  546EMC     H1 7437   1.337   1.860   4.286 -0.3226  0.9043 -0.3198
  546EMC     H2 7438   1.234   1.894   4.150 -1.1831 -1.3164 -2.4908
  546EMC     H3 7439   1.376   1.802   4.111 -1.2305  1.6432 -0.5732
  546EMC     C4 7440   1.296   1.355   4.111  0.3456  0.2761  0.5600
  546EMC     H4 7441   1.341   1.371   4.310 -1.4008 -0.5533  0.1767
  546EMC     H5 7442   1.423   1.493   4.218 -0.2177 -1.9452 -3.1440
  546EMC     H6 7443   1.271   1.419   4.026  2.5439 -0.3564 -0.6423
  546EMC     H7 7444   1.215   1.284   4.125  1.7841 -1.6435 -0.3114
  546EMC     H8 7445   1.389   1.301   4.094 -0.1340 -0.8568  1.4394
  547EMC     C1 7446   1.734   3.995   0.932 -0.5705  0.1282  0.2957
  547EMC     C2 7447   1.491   3.680   0.874  0.4741 -0.3448  0.2591
  547EMC     C3 7448   1.700   3.795   0.800 -0.5688 -0.1138  0.3876
  547EMC     O1 7449   1.743   3.852   0.914  0.7071 -0.4996  0.1089
  547EMC     O2 7450   1.630   3.706   0.878 -0.2304 -0.0056  0.6246
  547EMC     O3 7451   1.660   3.854   0.693 -0.2622 -0.2515 -0.2869
  547EMC     H1 7452   1.697   4.012   1.033  1.4239  0.4270  1.0052
  547EMC     H2 7453   1.663   4.036   0.859 -0.2158  0.4733  0.1413
  547EMC     H3 7454   1.833   4.037   0.918 -1.5541  1.7858 -2.7341
  547EMC     C4 7455   1.451   3.536   0.842 -0.4881 -0.1641 -0.5301
  547EMC     H4 7456   1.447   3.746   0.800  1.2603  0.3519  0.3951
  547EMC     H5 7457   1.456   3.719   0.970 -0.8556  0.9158 -0.7077
  547EMC     H6 7458   1.473   3.463   0.921 -1.5232  0.0866  0.0124
  547EMC     H7 7459   1.502   3.509   0.750  1.8720  0.0259  0.6387
  547EMC     H8 7460   1.346   3.514   0.824 -0.8939  0.4183  0.9810
  548EMC     C1 7461   3.170   1.813   3.725  0.1693  0.5246  0.3702
  548EMC     C2 7462   2.978   1.388   3.661 -0.5812 -0.8002 -0.0028
  548EMC     C3 7463   3.079   1.600   3.686 -0.0452  0.2572  0.3673
  548EMC     O1 7464   3.091   1.707   3.779  0.2991  0.1109 -0.0684
  548EMC     O2 7465   3.009   1.500   3.744 -0.0427  0.7627  0.0812
  548EMC     O3 7466   3.082   1.612   3.561 -0.6976 -0.0403  0.0165
  548EMC     H1 7467   3.226   1.777   3.639 -1.5964 -1.6817  0.0590
  548EMC     H2 7468   3.240   1.862   3.793 -0.1665  2.9375 -0.9281
  548EMC     H3 7469   3.109   1.897   3.691  1.7148  1.2307 -0.7566
  548EMC     C4 7470   2.883   1.287   3.722 -0.3953  0.1318  0.6445
  548EMC     H4 7471   3.074   1.337   3.650  0.7720  1.5732  0.2479
  548EMC     H5 7472   2.922   1.414   3.571 -3.6365 -0.5087  1.8306
  548EMC     H6 7473   2.908   1.238   3.816 -0.0847 -1.8019 -0.3985
  548EMC     H7 7474   2.857   1.207   3.653 -2.0737 -0.1271  1.5185
  548EMC     H8 7475   2.789   1.338   3.746  1.2468  4.1661 -0.5406
  549EMC     C1 7476   0.351   2.692   4.350 -0.2565  0.8432 -0.0865
  549EMC     C2 7477   0.469   3.094   4.312  1.1529 -0.0858  0.1002
  549EMC     C3 7478   0.475   2.871   4.247  0.4052  0.8561  0.8863
  549EMC     O1 7479   0.403   2.824   4.352 -0.4779  0.5974  0.0069
  549EMC     O2 7480   0.416   2.985   4.240  0.0201  0.0378  0.3245
  549EMC     O3 7481   0.511   2.808   4.152  0.3182  0.0277  0.1953
  549EMC     H1 7482   0.265   2.679   4.283  0.0537  1.8219 -0.7104
  549EMC     H2 7483   0.318   2.648   4.444 -0.1336 -1.6978 -1.1572
  549EMC     H3 7484   0.427   2.623   4.314 -1.3896 -0.9146  0.7832
  549EMC     C4 7485   0.540   3.199   4.237 -0.7404 -0.3426  0.3463
  549EMC     H4 7486   0.547   3.049   4.372  2.0506  1.9080  0.5195
  549EMC     H5 7487   0.392   3.134   4.378  1.2797  2.1704 -0.9967
  549EMC     H6 7488   0.614   3.142   4.182  0.8549  0.2707  1.7561
  549EMC     H7 7489   0.585   3.270   4.306  1.0853 -1.0881 -0.0272
  549EMC     H8 7490   0.466   3.236   4.166  0.8813 -0.0830 -1.2681
  550PF6     P1 7491   3.013   0.604   1.424 -0.7543  0.2786 -0.2710
  550PF6     F1 7492   3.058   0.451   1.399  0.2046 -0.2418  0.1101
  550PF6     F2 7493   2.953   0.750   1.448  0.5510 -0.5054 -0.1985
  550PF6     F3 7494   3.168   0.665   1.418 -0.1463  0.2497  0.3019
  550PF6     F4 7495   2.865   0.548   1.438 -0.1144 -1.0280  0.0520
  550PF6     F5 7496   3.025   0.573   1.581 -0.0266  0.3912 -0.1196
  550PF6     F6 7497   2.993   0.620   1.270 -0.0200 -0.0957  0.5151
  551PF6     P1 7498   4.361   0.896   0.432 -0.0324 -0.5879 -0.2221
  551PF6     F1 7499   4.338   0.863   0.589 -0.1362 -0.0311 -0.4430
  551PF6     F2 7500   4.375   0.938   0.277 -0.3129 -0.3220  0.0986
  551PF6     F3 7501   4.374   1.056   0.475 -0.3007 -0.4155  1.0250
  551PF6     F4 7502   4.350   0.742   0.387  0.2789 -0.1386 -0.0459
  551PF6     F5 7503   4.200   0.910   0.416  0.2444 -0.3086  0.4901
  551PF6     F6 7504   0.014   0.876   0.450 -0.2018 -0.1672  0.1831
  552PF6     P1 7505   3.781   2.975   0.126  0.3289 -0.2081 -0.1064
  552PF6     F1 7506   3.693   2.876   0.202  0.0486 -0.1453  0.0790
  552PF6     F2 7507   3.873   3.069   0.035  0.0125  0.4019 -0.5009
  552PF6     F3 7508   3.737   2.902   4.506  0.1151  0.6143 -0.3652
  552PF6     F4 7509   3.823   3.042   0.273  0.4463  0.1569  0.3237
  552PF6     F5 7510   3.905   2.876   0.135 -0.3139  0.2544  0.2134
  552PF6     F6 7511   3.653   3.076   0.110 -0.4955  0.1245 -0.0517
  553PF6     P1 7512   1.577   2.412   0.470  0.0114  0.2762  0.1517
  553PF6     F1 7513   1.691   2.298   0.447  0.4813  0.0386 -0.2942
  553PF6     F2 7514   1.464   2.525   0.495 -0.1434  0.3123  0.2710
  553PF6     F3 7515   1.615   2.424   0.630 -0.0869 -0.2195  0.0030
  553PF6     F4 7516   1.525   2.388   0.318  0.8125  0.3191 -0.6905
  553PF6     F5 7517   1.473   2.298   0.519  0.5307  0.0374  0.4335
  553PF6     F6 7518   1.683   2.523   0.427 -0.0751  0.1087  0.5937
  554PF6     P1 7519   2.617   1.505   3.437 -0.2071 -0.0858  0.1907
  554PF6     F1 7520   2.502   1.420   3.504  0.1079  1.2718 -0.4113
  554PF6     F2 7521   2.737   1.589   3.364  0.2205  0.2121  0.4298
  554PF6     F3 7522   2.651   1.576   3.580  0.3900  0.6081  0.1444
  554PF6     F4 7523   2.581   1.427   3.299  0.4398  0.8745 -0.1486
  554PF6     F5 7524   2.509   1.613   3.395  0.0514  0.2691 -0.1276
  554PF6     F6 7525   2.725   1.394   3.469 -0.3906 -0.5052  0.1913
  555PF6     P1 7526   2.703   2.458   2.374 -0.0744  0.4628 -0.1061
  555PF6     F1 7527   2.709   2.439   2.215 -0.5826 -0.3997  0.8148
  555PF6     F2 7528   2.694   2.475   2.535  0.5707  0.8016  0.1914
  555PF6     F3 7529   2.709   2.621   2.359 -0.3993 -0.5251  0.1520
  555PF6     F4 7530   2.711   2.301   2.390  0.2064  0.1364 -0.0206
  555PF6     F5 7531   2.861   2.459   2.384 -0.8163 -0.6867 -0.2345
  555PF6     F6 7532   2.542   2.451   2.371  0.0520 -0.2831  0.2796
  556PF6     P1 7533   2.460   0.193   0.420 -0.0550 -0.4271 -0.1566
  556PF6     F1 7534   2.332   0.101   0.459 -0.1794 -0.2060 -0.0348
  556PF6     F2 7535   2.586   0.289   0.385 -0.0153 -0.1344  0.1904
  556PF6     F3 7536   2.408   0.187   0.267  0.1515 -0.1290 -0.1821
  556PF6     F4 7537   2.511   0.187   0.575 -0.4728  0.0165  0.3894
  556PF6     F5 7538   2.542   0.065   0.385  0.0480  0.4153 -0.2128
  556PF6     F6 7539   2.376   0.320   0.445 -0.0477  0.4308  0.0734
  557PF6     P1 7540   1.609   2.178   2.517 -0.1754  0.4738 -0.3950
  557PF6     F1 7541   1.553   2.033   2.480 -0.0887  0.2305  0.2945
  557PF6     F2 7542   1.653   2.326   2.541 -0.2169 -0.3839  0.1029
  557PF6     F3 7543   1.749   2.123   2.577 -0.2346  0.4731  0.2426
  557PF6     F4 7544   1.469   2.231   2.462 -0.2302 -0.2593  0.2878
  557PF6     F5 7545   1.542   2.177   2.666 -0.3679  0.0032  0.0965
  557PF6     F6 7546   1.665   2.191   2.373 -0.9113 -0.3492 -0.2886
  558PF6     P1 7547   3.417   0.353   0.203  0.2517  0.2578  0.2386
  558PF6     F1 7548   3.298   0.401   0.112  0.7625 -0.1884  0.5473
  558PF6     F2 7549   3.541   0.307   0.292 -0.3046  0.1451  0.1521
  558PF6     F3 7550   3.421   0.222   0.121 -0.1027 -0.4622  0.0365
  558PF6     F4 7551   3.402   0.485   0.284  0.0942 -0.8150  0.3426
  558PF6     F5 7552   3.308   0.286   0.309 -0.0877 -0.2424 -0.3217
  558PF6     F6 7553   3.518   0.425   0.109  0.0741 -0.2165  0.6071
  559PF6     P1 7554   1.109   0.829   0.257 -0.0799  0.3123 -0.1774
  559PF6     F1 7555   1.061   0.929   0.142 -0.3861  0.6492 -0.1301
  559PF6     F2 7556   1.147   0.722   0.374 -0.1600 -0.2863 -0.2237
  559PF6     F3 7557   1.024   0.910   0.365  0.3077 -0.0541 -0.2575
  559PF6     F4 7558   1.191   0.736   0.148 -0.1888  0.2792  0.0400
  559PF6     F5 7559   1.246   0.904   0.291  0.2512  0.2522 -0.0871
  559PF6     F6 7560   0.988   0.735   0.221  0.1799 -0.6529 -0.2880
  560PF6     P1 7561   3.000   3.848   0.355  0.0963  0.2458 -0.1407
  560PF6     F1 7562   3.092   3.749   0.423  0.6373  0.1776  0.4604
  560PF6     F2 7563   2.905   3.962   0.289 -0.4199  0.6910  0.5190
  560PF6     F3 7564   3.034   3.947   0.475  0.2072 -0.6525 -0.0050
  560PF6     F4 7565   2.978   3.749   0.243 -0.4153  0.8844 -0.0795
  560PF6     F5 7566   2.876   3.787   0.440 -0.2106  1.0743  0.3713
  560PF6     F6 7567   3.125   3.908   0.271  0.3561  0.3254  0.0355
  561PF6     P1 7568   2.789   4.131   1.871  0.2097 -0.0784 -0.3014
  561PF6     F1 7569   2.789   4.284   1.921 -0.4504 -0.0995 -0.2803
  561PF6     F2 7570   2.788   3.975   1.834 -0.0547  0.2055  0.3197
  561PF6     F3 7571   2.693   4.103   1.995 -0.0305  0.0020  0.0697
  561PF6     F4 7572   2.892   4.168   1.753  0.1417 -0.3664 -0.1765
  561PF6     F5 7573   2.925   4.108   1.964 -0.4512 -0.0269 -0.0273
  561PF6     F6 7574   2.666   4.159   1.773 -0.0712 -0.3903  0.0085
  562PF6     P1 7575   3.021   3.726   3.401 -0.2309  0.0959  0.0224
  562PF6     F1 7576   3.009   3.584   3.324  0.3387 -0.1422 -0.3671
  562PF6     F2 7577   3.035   3.860   3.486  0.0588 -0.7038  0.2249
  562PF6     F3 7578   2.991   3.810   3.260  0.0555 -0.3683 -0.1834
  562PF6     F4 7579   3.052   3.649   3.541 -0.2586  0.6407  0.2492
  562PF6     F5 7580   3.180   3.729   3.367  0.2494  0.6705 -0.3982
  562PF6     F6 7581   2.859   3.718   3.434 -0.4807  0.2644  0.2878
  563PF6     P1 7582   1.124   3.552   1.123  0.4629 -0.1005 -0.3072
  563PF6     F1 7583   1.063   3.424   1.195 -0.2290 -0.4497  0.4505
  563PF6     F2 7584   1.186   3.668   1.036  0.1675  0.1233  0.1529
  563PF6     F3 7585   1.123   3.644   1.257  0.2731  0.0699 -0.1949
  563PF6     F4 7586   1.124   3.465   0.987  0.0058 -0.0709  0.0801
  563PF6     F5 7587   0.972   3.596   1.094  0.4880 -0.8159 -0.1926
  563PF6     F6 7588   1.271   3.503   1.150 -0.1152  0.2669 -0.0055
  564PF6     P1 7589   2.569   2.535   0.979 -0.1150 -0.0897 -0.2162
  564PF6     F1 7590   2.682   2.623   0.901 -0.2799  0.0380 -0.6321
  564PF6     F2 7591   2.453   2.456   1.066 -0.5569 -0.0429  0.4599
  564PF6     F3 7592   2.661   2.405   0.973 -1.1484 -0.3582 -0.0641
  564PF6     F4 7593   2.475   2.666   0.970  0.1304 -0.0689 -0.8530
  564PF6     F5 7594   2.513   2.489   0.841  0.7430  0.2126  0.0658
  564PF6     F6 7595   2.641   2.577   1.115  0.6785 -0.2916 -0.0541
  565PF6     P1 7596   1.626   0.126   2.290 -0.3011 -0.1194 -0.1298
  565PF6     F1 7597   1.679   0.179   2.424  0.3460  0.7806  0.2303
  565PF6     F2 7598   1.577   0.071   2.148  0.2518  0.7155  0.1401
  565PF6     F3 7599   1.710   0.245   2.213 -0.1232  0.0918 -0.0764
  565PF6     F4 7600   1.540   0.019   2.373  0.2682  0.1874 -0.0308
  565PF6     F5 7601   1.501   0.232   2.311 -0.2438  0.1360  0.0297
  565PF6     F6 7602   1.748   0.027   2.290 -0.8372  0.2296  0.6435
  566PF6     P1 7603   1.511   0.942   2.509  0.0571  0.1045  0.2845
  566PF6     F1 7604   1.399   0.984   2.400 -0.0166 -0.2430 -0.2146
  566PF6     F2 7605   1.625   0.915   2.623  0.2641 -0.5600 -0.1529
  566PF6     F3 7606   1.567   0.823   2.427  0.1022  0.0805 -0.1813
  566PF6     F4 7607   1.453   1.064   2.593  0.9534  0.3431  0.0460
  566PF6     F5 7608   1.415   0.839   2.591 -0.3410 -0.4485 -0.1366
  566PF6     F6 7609   1.615   1.039   2.434  0.3407  0.0993 -0.0577
  567PF6     P1 7610   1.865   2.088   1.895 -0.1181 -0.0373  0.0983
  567PF6     F1 7611   1.712   2.090   1.839  0.0996 -0.1570 -0.2085
  567PF6     F2 7612   2.018   2.081   1.947 -0.5027  0.0667  0.0033
  567PF6     F3 7613   1.853   2.240   1.943 -0.4064  0.3077 -0.5951
  567PF6     F4 7614   1.878   1.931   1.861 -0.1745  0.1108 -0.5529
  567PF6     F5 7615   1.921   2.121   1.744 -0.1752  0.4380  0.0271
  567PF6     F6 7616   1.820   2.038   2.040  0.0899 -0.0085  0.1928
  568PF6     P1 7617   2.278   1.920   4.455 -0.3599  0.0554 -0.3466
  568PF6     F1 7618   2.420   1.867   4.484 -0.1927  0.0914 -0.3294
  568PF6     F2 7619   2.127   1.987   4.429  0.0845  1.0480  0.3288
  568PF6     F3 7620   2.218   1.812   0.049 -0.5231  0.4947 -0.3837
  568PF6     F4 7621   2.337   2.030   4.353 -0.0908  0.3015 -0.3487
  568PF6     F5 7622   2.266   1.820   4.325  0.0369  0.4701 -0.1069
  568PF6     F6 7623   2.304   2.018   0.066 -0.3424 -1.2879 -0.3214
  569PF6     P1 7624   0.352   2.317   1.992 -0.3261 -0.2271  0.2493
  569PF6     F1 7625   0.427   2.406   1.887 -0.3149 -0.4427 -0.0828
  569PF6     F2 7626   0.276   2.230   2.097  0.1034  0.3125  0.0407
  569PF6     F3 7627   0.214   2.348   1.914  0.4005 -0.1593 -0.3418
  569PF6     F4 7628   0.497   2.288   2.058  0.7781  0.5986 -0.0278
  569PF6     F5 7629   0.336   2.450   2.078 -0.3745  0.5864  0.9373
  569PF6     F6 7630   0.369   2.192   1.897  0.5129  0.3940  0.2420
  570PF6     P1 7631   1.253   1.328   3.091 -0.4251 -0.0414 -0.3446
  570PF6     F1 7632   1.223   1.393   2.952 -0.4043  0.0744 -0.1745
  570PF6     F2 7633   1.291   1.260   3.228  0.2016 -0.0741  0.2262
  570PF6     F3 7634   1.240   1.469   3.166  0.3777  0.1014  0.5804
  570PF6     F4 7635   1.272   1.186   3.020 -0.0291  0.4827  0.1469
  570PF6     F5 7636   1.406   1.360   3.068  0.8828 -0.1815 -0.1993
  570PF6     F6 7637   1.094   1.302   3.114  0.4290  0.2673  0.1976
  571PF6     P1 7638   2.360   4.191   3.516  0.2362  0.0561 -0.2329
  571PF6     F1 7639   2.455   4.061   3.502 -0.6561  0.3546  0.2577
  571PF6     F2 7640   2.264   4.317   3.525  0.5444  0.5554  0.6209
  571PF6     F3 7641   2.486   4.284   3.539  0.3124 -0.4832 -0.0389
  571PF6     F4 7642   2.236   4.101   3.485  0.0512 -0.0274 -0.0921
  571PF6     F5 7643   2.349   4.158   3.673 -0.4185 -0.0078 -0.3055
  571PF6     F6 7644   2.380   4.209   3.357 -0.1569 -0.6988 -0.1672
  572PF6     P1 7645   3.919   2.977   2.106 -0.6382 -0.0662  0.1885
  572PF6     F1 7646   3.905   3.134   2.092 -0.2712  0.2887  0.3061
  572PF6     F2 7647   3.932   2.821   2.119  0.0413  0.7862 -0.1680
  572PF6     F3 7648   3.773   2.960   2.037 -0.6465 -0.5513 -0.0354
  572PF6     F4 7649   4.061   3.005   2.175  0.6123  0.5298  0.5036
  572PF6     F5 7650   3.848   2.981   2.247 -0.1012 -0.3858  0.2738
  572PF6     F6 7651   3.997   2.973   1.967  0.1616  0.1952  0.4349
  573PF6     P1 7652   3.370   1.174   3.688  0.0823 -0.4695  0.2985
  573PF6     F1 7653   3.454   1.146   3.822 -0.0151  0.3210 -0.2882
  573PF6     F2 7654   3.285   1.211   3.554 -0.2624  0.2211  0.4891
  573PF6     F3 7655   3.499   1.248   3.627  0.1667 -0.0912  0.7204
  573PF6     F4 7656   3.244   1.107   3.755 -0.2443 -0.2561 -0.1654
  573PF6     F5 7657   3.326   1.316   3.753 -0.0785 -0.6285 -0.0016
  573PF6     F6 7658   3.418   1.040   3.623  0.2935 -0.2182  0.0738
  574PF6     P1 7659   1.915   1.029   3.548  0.1350  0.0641  0.2916
  574PF6     F1 7660   1.909   1.096   3.400  0.0878 -0.0066 -0.0920
  574PF6     F2 7661   1.913   0.970   3.698  0.0486 -0.2997  0.2493
  574PF6     F3 7662   1.990   0.901   3.491  0.1358 -0.5032 -0.2409
  574PF6     F4 7663   1.840   1.157   3.606  0.4756 -0.0814 -0.1418
  574PF6     F5 7664   1.771   0.968   3.521 -0.7307  0.5603  0.0222
  574PF6     F6 7665   2.058   1.100   3.577 -0.3322  0.8791 -0.6980
  575PF6     P1 7666   2.983   0.475   2.800 -0.1867 -0.1784  0.1735
  575PF6     F1 7667   3.126   0.509   2.731 -0.0108 -0.3591  0.0270
  575PF6     F2 7668   2.840   0.446   2.878  0.4076  0.3269 -0.3737
  575PF6     F3 7669   2.966   0.339   2.724  0.1154 -0.4391 -0.3393
  575PF6     F4 7670   2.993   0.611   2.884  0.2263 -0.3403  0.1569
  575PF6     F5 7671   2.910   0.554   2.681 -0.2199  0.0089 -0.6567
  575PF6     F6 7672   3.068   0.405   2.917 -0.3512 -0.4628  0.0190
  576PF6     P1 7673   2.017   2.607   3.538  0.0424 -0.7274 -0.2505
  576PF6     F1 7674   2.003   2.523   3.398  0.0646 -0.0543 -0.0112
  576PF6     F2 7675   2.046   2.680   3.678 -0.3239 -0.0261 -0.0410
  576PF6     F3 7676   1.911   2.511   3.609 -0.4418 -0.1750 -0.5649
  576PF6     F4 7677   2.128   2.709   3.471 -0.2783 -0.0116 -0.2254
  576PF6     F5 7678   1.895   2.713   3.498  0.2104  0.2148  0.2599
  576PF6     F6 7679   2.129   2.505   3.577 -0.3621 -0.3782 -0.1785
  577PF6     P1 7680   0.082   3.137   1.585  0.0707 -0.2877  0.2679
  577PF6     F1 7681   0.178   3.021   1.541  0.0850 -0.2452  0.0319
  577PF6     F2 7682   4.495   3.254   1.630  0.1202 -0.3839  0.2096
  577PF6     F3 7683   0.202   3.225   1.633 -1.0193  0.0132  0.3441
  577PF6     F4 7684   4.467   3.051   1.533  0.2599  0.3453 -0.1352
  577PF6     F5 7685   0.076   3.079   1.731 -0.4358 -0.4149 -0.4875
  577PF6     F6 7686   0.095   3.209   1.444 -0.2282 -0.6854  0.0191
  578PF6     P1 7687   3.529   2.699   0.920 -0.2801 -0.0434  0.2424
  578PF6     F1 7688   3.483   2.749   1.068  0.0125 -0.0062 -0.3388
  578PF6     F2 7689   3.574   2.644   0.772 -0.5891 -0.0778  0.8065
  578PF6     F3 7690   3.638   2.806   0.922  0.1054  0.0168  0.5271
  578PF6     F4 7691   3.404   2.598   0.923 -0.0083 -0.3721 -0.3436
  578PF6     F5 7692   3.431   2.801   0.844 -0.2957 -0.1067 -0.3290
  578PF6     F6 7693   3.626   2.595   0.991 -0.0871  0.3731  0.0855
  579PF6     P1 7694   0.886   3.830   3.196  0.2147  0.4989 -0.2497
  579PF6     F1 7695   0.986   3.955   3.201 -0.0562 -0.2103  0.1877
  579PF6     F2 7696   0.781   3.708   3.183 -0.0217  0.3044 -0.3090
  579PF6     F3 7697   0.968   3.758   3.083 -0.1808 -0.1468  0.3094
  579PF6     F4 7698   0.796   3.893   3.311  0.0005  0.3389 -0.5253
  579PF6     F5 7699   0.799   3.912   3.092  0.5007 -0.0072 -0.1651
  579PF6     F6 7700   0.971   3.752   3.308  0.1528  0.1159 -0.2837
  580PF6     P1 7701   1.109   1.703   2.613 -0.1115  0.4714  0.3451
  580PF6     F1 7702   1.038   1.609   2.722 -0.2848  0.0540  0.1433
  580PF6     F2 7703   1.178   1.794   2.512  0.2563 -0.0001 -0.1517
  580PF6     F3 7704   0.968   1.711   2.540 -0.0073 -0.0593 -0.2180
  580PF6     F4 7705   1.238   1.686   2.700 -1.3518 -0.0946 -0.1775
  580PF6     F5 7706   1.143   1.573   2.519 -0.1845  0.0156  0.1678
  580PF6     F6 7707   1.077   1.837   2.694 -0.1911 -0.4651 -0.1785
  581PF6     P1 7708   1.015   2.695   4.037  0.0626 -0.0174  0.4565
  581PF6     F1 7709   0.993   2.698   3.880 -0.0572 -0.4160  0.4921
  581PF6     F2 7710   1.016   2.681   4.195 -0.5949  0.3275 -0.3306
  581PF6     F3 7711   1.026   2.856   4.052 -0.3483 -0.1705 -0.0444
  581PF6     F4 7712   1.013   2.538   4.025 -0.5315  0.3524 -0.5702
  581PF6     F5 7713   1.174   2.697   4.026 -0.0066 -0.0183 -0.0526
  581PF6     F6 7714   0.854   2.703   4.057  0.2991 -0.1301  0.3840
  582PF6     P1 7715   3.907   1.847   1.236  0.5453 -0.0257 -0.2632
  582PF6     F1 7716   4.011   1.725   1.227 -0.3694  0.3592  0.0534
  582PF6     F2 7717   3.798   1.967   1.243 -0.2710 -0.2812 -0.4706
  582PF6     F3 7718   4.024   1.958   1.243  0.6627 -0.1583 -0.8392
  582PF6     F4 7719   3.782   1.744   1.225  0.5716 -0.2356  0.2909
  582PF6     F5 7720   3.900   1.835   1.395  0.5016  0.2191 -0.2476
  582PF6     F6 7721   3.902   1.865   1.076 -0.3935  0.4218 -0.3410
  583PF6     P1 7722   0.720   0.208   2.270 -0.2914 -0.1189 -0.4004
  583PF6     F1 7723   0.838   0.111   2.331  0.6907  0.3245 -0.3145
  583PF6     F2 7724   0.609   0.303   2.210  0.0913  0.2020  0.2873
  583PF6     F3 7725   0.604   0.109   2.310 -0.3887 -0.2992  0.5148
  583PF6     F4 7726   0.829   0.322   2.233 -0.2827 -0.5676 -0.1100
  583PF6     F5 7727   0.735   0.132   2.130 -0.0327  0.1379  0.1258
  583PF6     F6 7728   0.698   0.282   2.405  0.4276 -0.4563  0.0417
  584PF6     P1 7729   4.272   1.864   3.971  0.1454  0.0096  0.1848
  584PF6     F1 7730   4.350   1.827   3.837 -0.1512 -0.2071  0.2934
  584PF6     F2 7731   4.189   1.898   4.106 -1.3081 -0.1667  0.6726
  584PF6     F3 7732   4.176   1.963   3.891 -0.7307  0.0693 -0.4290
  584PF6     F4 7733   4.365   1.758   4.053 -0.3140 -1.4113  0.0826
  584PF6     F5 7734   4.378   1.978   4.002 -0.8585  0.4324 -0.8134
  584PF6     F6 7735   4.160   1.748   3.943  0.4423 -0.2026  0.1132
  585PF6     P1 7736   3.984   0.810   3.340 -0.2471  0.1552  0.3918
  585PF6     F1 7737   3.958   0.655   3.382 -0.1647  0.2748 -0.5114
  585PF6     F2 7738   4.004   0.959   3.295 -0.5465 -0.5011 -0.4390
  585PF6     F3 7739   4.139   0.802   3.384 -0.4060 -0.0234 -0.3576
  585PF6     F4 7740   3.828   0.821   3.292  0.2143  0.6435 -0.0019
  585PF6     F5 7741   3.944   0.860   3.483  0.0340  0.7606 -0.5595
  585PF6     F6 7742   4.022   0.770   3.194  0.4754  0.4067 -0.0800
  586PF6     P1 7743   3.214   4.461   4.281 -0.2596  0.1923 -0.2356
  586PF6     F1 7744   3.105   4.507   4.394  0.5431  0.6914  0.5645
  586PF6     F2 7745   3.312   4.391   4.171  0.1892  0.0831  0.3757
  586PF6     F3 7746   3.298   0.086   4.287 -0.1626 -0.2622  0.0481
  586PF6     F4 7747   3.136   4.322   4.280  0.1485 -0.1103  0.2407
  586PF6     F5 7748   3.117   0.007   4.160  0.1171  0.3109 -0.0466
  586PF6     F6 7749   3.311   4.403   4.398  0.0335 -0.0246 -0.5864
  587PF6     P1 7750   0.395   4.241   0.748  0.3339  0.0397  0.2301
  587PF6     F1 7751   0.548   4.218   0.773 -0.0717  0.5289  0.1069
  587PF6     F2 7752   0.239   4.265   0.724  0.2224  0.1079 -0.0669
  587PF6     F3 7753   0.430   4.360   0.650  0.2202  0.9967  0.4987
  587PF6     F4 7754   0.364   4.116   0.842 -0.7322 -0.2479 -0.0699
  587PF6     F5 7755   0.380   4.333   0.873 -0.6077 -0.6153  0.9902
  587PF6     F6 7756   0.393   4.144   0.625 -0.0523  0.3360  0.1159
  588PF6     P1 7757   0.243   2.316   0.512  0.2051 -0.0095 -0.0575
  588PF6     F1 7758   0.368   2.274   0.420  0.0716  0.6989 -0.2202
  588PF6     F2 7759   0.113   2.341   0.613 -0.0662 -0.3351  0.1116
  588PF6     F3 7760   0.143   2.250   0.405 -0.0753  0.0141 -0.2294
  588PF6     F4 7761   0.341   2.380   0.621  0.0652  0.3299  0.2494
  588PF6     F5 7762   0.222   2.460   0.448 -0.3290 -0.1075  0.2173
  588PF6     F6 7763   0.263   2.172   0.591 -0.2128  0.0184 -0.5781
  589PF6     P1 7764   0.751   0.102   3.650 -0.3475  0.0352  0.2264
  589PF6     F1 7765   0.877   0.174   3.573 -0.8443  0.3031 -0.5105
  589PF6     F2 7766   0.627   0.033   3.730  0.5204  0.1797 -0.0392
  589PF6     F3 7767   0.760   0.201   3.773 -0.3959  0.2490  0.1064
  589PF6     F4 7768   0.731   4.506   3.529 -0.0313 -0.2280 -0.0238
  589PF6     F5 7769   0.852   0.006   3.729  0.4826  0.2783  0.2484
  589PF6     F6 7770   0.644   0.189   3.570  0.8073  0.2522 -0.1173
  590PF6     P1 7771   3.614   2.587   3.623  0.3642  0.0605 -0.3411
  590PF6     F1 7772   3.660   2.438   3.593  0.2342  0.0090  0.2734
  590PF6     F2 7773   3.568   2.734   3.649 -0.3324 -0.1784 -0.0355
  590PF6     F3 7774   3.480   2.567   3.532  0.2114  0.4058 -0.0216
  590PF6     F4 7775   3.744   2.614   3.716 -0.1645  0.1124  0.3949
  590PF6     F5 7776   3.697   2.633   3.496 -0.4274 -0.1957  0.9281
  590PF6     F6 7777   3.540   2.532   3.756  0.0244  0.6779  0.0996
  591PF6     P1 7778   1.614   2.969   2.105 -0.2398  0.0030 -0.3316
  591PF6     F1 7779   1.636   3.122   2.067 -1.0968 -0.1033  0.1925
  591PF6     F2 7780   1.591   2.816   2.139 -0.0225  0.9074 -0.3340
  591PF6     F3 7781   1.520   3.009   2.232  0.5699  0.9423 -0.2737
  591PF6     F4 7782   1.723   2.925   1.994 -0.1717  0.0833 -0.2045
  591PF6     F5 7783   1.736   2.968   2.206  0.1348  0.2859 -0.2456
  591PF6     F6 7784   1.488   2.963   2.007  0.0487 -0.0410  0.2279
  592PF6     P1 7785   3.069   3.419   1.844  0.0725 -0.2219  0.2080
  592PF6     F1 7786   2.920   3.475   1.810  0.1446  0.1125 -0.1953
  592PF6     F2 7787   3.211   3.366   1.881  0.0932 -0.1306  0.4089
  592PF6     F3 7788   3.007   3.361   1.977 -0.2072  0.4448  0.1132
  592PF6     F4 7789   3.124   3.479   1.710  0.5344  0.1594  0.2441
  592PF6     F5 7790   3.093   3.556   1.914 -0.1589  0.3310  0.3580
  592PF6     F6 7791   3.034   3.285   1.769 -0.3889 -0.4105 -0.1313
  593PF6     P1 7792   1.710   1.453   1.805  0.0661 -0.0947  0.1470
  593PF6     F1 7793   1.582   1.364   1.836  0.2964  0.5205  0.3296
  593PF6     F2 7794   1.848   1.531   1.776  0.1805 -0.2106 -0.6015
  593PF6     F3 7795   1.643   1.588   1.870  0.7975 -0.1696  0.3899
  593PF6     F4 7796   1.786   1.326   1.748  0.0983 -0.0813  0.1209
  593PF6     F5 7797   1.655   1.487   1.661  0.3685 -0.6520  0.5344
  593PF6     F6 7798   1.753   1.417   1.955  0.4328  0.5549 -0.0163
  594PF6     P1 7799   1.837   1.310   0.413  0.0801  0.0059 -0.3161
  594PF6     F1 7800   1.806   1.462   0.412  0.8516  0.1790 -0.3034
  594PF6     F2 7801   1.869   1.158   0.421  0.1206 -0.4702  0.3807
  594PF6     F3 7802   1.988   1.341   0.355  0.6170  0.3427  0.2438
  594PF6     F4 7803   1.699   1.283   0.492 -0.4150 -0.1769  0.6448
  594PF6     F5 7804   1.775   1.297   0.267  0.9306  0.3646  0.3353
  594PF6     F6 7805   1.908   1.325   0.552  0.2560 -0.7577  0.0110
  595PF6     P1 7806   1.008   2.030   0.007 -0.0910  0.1029  0.4809
  595PF6     F1 7807   0.878   1.950   0.018 -0.2013  0.0092  0.4529
  595PF6     F2 7808   1.148   2.114   0.000  0.0155  0.0956  0.0003
  595PF6     F3 7809   0.925   2.155   4.471 -0.0656  0.1014  0.3968
  595PF6     F4 7810   1.085   1.895   0.052  0.0483 -0.4037  0.3435
  595PF6     F5 7811   1.025   1.986   4.366  0.2504  0.6720  0.2352
  595PF6     F6 7812   0.992   2.065   0.163  0.1452 -0.0945 -0.5038
  596PF6     P1 7813   3.853   3.729   1.012  0.0657  0.0556 -0.1339
  596PF6     F1 7814   3.748   3.804   0.923  0.2368  0.3463  0.2163
  596PF6     F2 7815   3.975   3.659   1.096  0.1567 -0.0702 -0.1264
  596PF6     F3 7816   3.829   3.827   1.140  0.2185  0.7288 -0.3920
  596PF6     F4 7817   3.886   3.634   0.888  0.1964  0.2512  0.2237
  596PF6     F5 7818   3.968   3.831   0.962  0.2538 -0.2184 -0.1062
  596PF6     F6 7819   3.745   3.625   1.064  0.5802 -0.1919 -0.6242
  597PF6     P1 7820   0.578   3.769   2.045  0.0111 -0.4385 -0.2323
  597PF6     F1 7821   0.588   3.609   2.074 -0.2236 -0.2011 -0.1742
  597PF6     F2 7822   0.581   3.928   2.020  0.1371  0.3350 -0.0664
  597PF6     F3 7823   0.705   3.782   2.139  0.6173 -0.3955  0.1996
  597PF6     F4 7824   0.456   3.737   1.956  0.1994  0.7467  0.0578
  597PF6     F5 7825   0.490   3.780   2.173  0.3413 -0.1029 -0.6374
  597PF6     F6 7826   0.660   3.744   1.911 -0.1825 -0.0442  0.3175
  598PF6     P1 7827   3.132   2.499   0.126 -0.1408  0.2462  0.1183
  598PF6     F1 7828   3.074   2.387   0.225 -0.1703  0.5048  0.1074
  598PF6     F2 7829   3.186   2.613   0.016  0.3048  0.1793 -0.6528
  598PF6     F3 7830   3.283   2.432   0.143  0.2642  0.1655 -0.0139
  598PF6     F4 7831   2.976   2.553   0.095  0.0100 -0.3744 -0.1209
  598PF6     F5 7832   3.153   2.599   0.244 -0.4655 -0.0200  0.0448
  598PF6     F6 7833   3.112   2.401   0.001  0.4316 -0.0949  0.5607
  599PF6     P1 7834   0.810   3.808   4.312 -0.4364  0.0654  0.0704
  599PF6     F1 7835   0.886   3.679   4.357 -0.2634 -0.1369 -0.2997
  599PF6     F2 7836   0.731   3.940   4.262  0.3902  0.1943 -0.1257
  599PF6     F3 7837   0.696   3.713   4.251 -0.1842 -0.3269 -0.2749
  599PF6     F4 7838   0.933   3.892   4.370  0.1863 -0.1082 -0.0352
  599PF6     F5 7839   0.880   3.814   4.173  0.1578 -0.3298 -0.3300
  599PF6     F6 7840   0.740   3.817   4.454  0.1799  0.1473 -0.1136
  600PF6     P1 7841   0.059   1.497   0.042 -0.0364 -0.2589 -0.0422
  600PF6     F1 7842   0.079   1.625   4.461  0.0679  0.0911 -0.3907
  600PF6     F2 7843   0.043   1.360   0.126 -0.3725  0.3931  0.0605
  600PF6     F3 7844   0.153   1.420   4.450 -0.0658  0.6806  0.5107
  600PF6     F4 7845   4.470   1.579   0.140  0.6145 -0.1423  0.2978
  600PF6     F5 7846   4.434   1.455   4.456  0.4671 -0.4789 -0.1177
  600PF6     F6 7847   0.189   1.533   0.131  0.8743  0.4882  0.3660
  601PF6     P1 7848   1.999   3.032   0.945 -0.5213  0.7040  0.2662
  601PF6     F1 7849   2.055   3.041   1.097 -0.1256  0.2936 -0.1348
  601PF6     F2 7850   1.947   3.015   0.800  0.5300  0.4229  0.2374
  601PF6     F3 7851   1.931   2.892   0.985  0.2453  0.3116  0.0328
  601PF6     F4 7852   2.079   3.167   0.907 -0.1022 -0.2060  0.1940
  601PF6     F5 7853   2.135   2.957   0.903 -0.1676 -0.1263 -0.1659
  601PF6     F6 7854   1.866   3.119   0.989  0.5443 -0.0003  0.0089
  602Na     Na1 7855   3.854   0.796   3.032 -1.1264 -0.1885 -0.6162
  603Na     Na1 7856   3.785   0.239   1.494 -0.0392 -0.0112 -0.0673
  604Na     Na1 7857   3.188   0.489   0.431  0.1169  0.1404 -0.2095
  605Na     Na1 7858   0.010   2.238   0.815 -0.0045  0.2406  0.3845
  606Na     Na1 7859   1.954   3.046   4.105 -0.0679  0.3118  0.1323
  607Na     Na1 7860   2.898   4.290   4.348  0.0159 -0.0353 -0.1596
  608Na     Na1 7861   0.618   1.959   3.857 -0.0039  0.2514  0.4587
  609Na     Na1 7862   3.875   1.674   0.426 -0.8130 -0.1084 -0.3673
  610Na     Na1 7863   0.302   3.627   1.088  0.1655  0.1602 -0.3170
  611Na     Na1 7864   3.798   0.351   0.284 -0.2206  0.2749  0.1275
  612Na     Na1 7865   1.304   1.415   2.727  0.3159 -0.3064  0.3506
  613Na     Na1 7866   3.220   0.872   3.860  0.1238  0.5647  0.1512
  614Na     Na1 7867   1.174   2.351   1.293  0.0056 -0.3168  0.0164
  615Na     Na1 7868   0.963   3.942   2.838 -0.2010  0.1424  0.0753
  616Na     Na1 7869   1.097   0.503   0.299  0.2212 -0.2864  0.4018
  617Na     Na1 7870   1.164   3.883   4.312 -0.0327  0.1592 -0.0810
  618Na     Na1 7871   3.989   3.360   2.153 -0.1826  0.6644 -0.0416
  619Na     Na1 7872   2.966   1.738   3.368 -0.4055 -0.6677  0.1165
  620Na     Na1 7873   2.345   2.556   0.693 -0.1347 -0.5125 -0.1735
  621Na     Na1 7874   2.001   1.153   0.648  0.3731 -0.2234 -0.3622
  622Na     Na1 7875   1.447   2.291   2.951  0.5398  0.1339 -0.2033
  623Na     Na1 7876   0.428   1.102   0.817 -0.1285  0.1890  0.1004
  624Na     Na1 7877   2.612   0.168   3.191  0.0792 -0.0601 -0.5292
  625Na     Na1 7878   1.678   3.263   0.951  0.3163 -0.0154  0.2991
  626Na     Na1 7879   0.256   4.025   4.357 -0.0911 -0.4124 -0.4186
  627Na     Na1 7880   0.700   3.173   2.850 -0.0735  0.3604 -0.1414
  628Na     Na1 7881   0.744   2.133   0.146 -0.0113  0.0369 -0.0398
  629Na     Na1 7882   2.740   0.460   1.236  0.3692  0.2392 -0.2956
  630Na     Na1 7883   1.957   1.610   2.905  0.1473 -0.6252  0.1762
  631Na     Na1 7884   4.054   1.611   3.761  0.4907 -0.8352 -0.3752
  632Na     Na1 7885   1.947   1.078   4.174  0.0280 -0.0135 -0.4102
  633Na     Na1 7886   0.272   2.619   0.199  0.0241 -0.1446 -0.0460
  634Na     Na1 7887   3.169   3.427   3.508 -0.1200 -0.2381  0.7907
  635Na     Na1 7888   1.243   3.851   3.476  0.0869  0.3874  0.0492
  636Na     Na1 7889   3.268   2.276   2.374  0.5079  0.3717  0.3023
  637Na     Na1 7890   0.910   0.853   2.556 -0.2888  0.1030 -0.4415
  638Na     Na1 7891   2.610   3.516   1.116  0.1123  0.4328 -0.3448
  639Na     Na1 7892   3.275   2.912   1.050  0.4105  0.0240  0.2342
  640Na     Na1 7893   3.080   3.114   2.018 -0.3505 -0.1973  0.0344
  641Na     Na1 7894   3.042   1.417   1.679  0.0518  0.2494  0.1104
  642Na     Na1 7895   2.522   0.057   2.533 -0.0571  0.0188  0.0623
  643Na     Na1 7896   1.297   1.084   3.397  0.1302 -0.0349 -0.4040
  644Na     Na1 7897   2.562   3.854   2.572  0.0033  0.3978  0.2996
  645Na     Na1 7898   1.464   1.903   0.004  0.6557  0.4922  0.2046
  646Na     Na1 7899   2.306   2.139   4.133  0.1894 -0.1120  0.0812
  647Na     Na1 7900   0.882   4.281   1.730  0.6344 -0.1080  0.1454
  648Na     Na1 7901   4.273   0.644   0.133  0.3547  0.6251 -0.0275
  649Na     Na1 7902   1.766   1.935   2.331 -0.3916 -0.1569 -0.5227
  650Na     Na1 7903   4.169   2.792   1.020  0.0593  0.0939  0.1050
  651Na     Na1 7904   3.536   2.533   4.038 -0.4918 -0.3114 -0.0590
  652Na     Na1 7905   1.861   2.706   1.869 -0.5646 -0.5539 -0.1727
  653Na     Na1 7906   0.437   2.919   1.705  0.4651  0.0294 -0.1965
   4.51014   4.51014   4.51014
